
     Program PWSCF v.7.2 starts on  4Jul2023 at 11:34:37 

     This program is part of the open-source Quantum ESPRESSO suite
     for quantum simulation of materials; please cite
         "P. Giannozzi et al., J. Phys.:Condens. Matter 21 395502 (2009);
         "P. Giannozzi et al., J. Phys.:Condens. Matter 29 465901 (2017);
         "P. Giannozzi et al., J. Chem. Phys. 152 154105 (2020);
          URL http://www.quantum-espresso.org", 
     in publications or presentations arising from this work. More details at
     http://www.quantum-espresso.org/quote

     Parallel version (MPI), running on     1 processors

     MPI processes distributed on     1 nodes
     1229 MiB available memory on the printing compute node when the environment starts

     Waiting for input...
     Reading input from standard input

     Current dimensions of program PWSCF are:
     Max number of different atomic species (ntypx) = 10
     Max number of k-points (npk) =  40000
     Max angular momentum in pseudopotentials (lmaxx) =  4

     Subspace diagonalization in iterative solution of the eigenvalue problem:
     a serial algorithm will be used


     G-vector sticks info
     --------------------
     sticks:   dense  smooth     PW     G-vecs:    dense   smooth      PW
     Sum         595     241     85                35435     8973    1651

     Using Slab Decomposition



     bravais-lattice index     =            4
     lattice parameter (alat)  =       4.6540  a.u.
     unit-cell volume          =     261.8973 (a.u.)^3
     number of atoms/cell      =            2
     number of atomic types    =            1
     number of electrons       =         8.00
     number of Kohn-Sham states=            4
     kinetic-energy cutoff     =      40.0000  Ry
     charge density cutoff     =     400.0000  Ry
     scf convergence threshold =      1.0E-08
     mixing beta               =       0.7000
     number of iterations used =            8  plain     mixing
     Exchange-correlation= LDA
                           (   1   1   0   0   0   0   0)

     celldm(1)=   4.654000  celldm(2)=   0.000000  celldm(3)=   3.000000
     celldm(4)=   0.000000  celldm(5)=   0.000000  celldm(6)=   0.000000

     crystal axes: (cart. coord. in units of alat)
               a(1) = (   1.000000   0.000000   0.000000 )  
               a(2) = (  -0.500000   0.866025   0.000000 )  
               a(3) = (   0.000000   0.000000   3.000000 )  

     reciprocal axes: (cart. coord. in units 2 pi/alat)
               b(1) = (  1.000000  0.577350 -0.000000 )  
               b(2) = (  0.000000  1.154701  0.000000 )  
               b(3) = (  0.000000 -0.000000  0.333333 )  


     PseudoPot. # 1 for C  read from file:
     ./C.pz-n-rrkjus_psl.0.1.UPF
     MD5 check sum: a3cecbabebb5b3a1aff122f23eb09bb0
     Pseudo is Ultrasoft + core correction, Zval =  4.0
     Generated using "atomic" code by A. Dal Corso  v.5.0.2 svn rev. 9415
     Using radial grid of 1073 points,  4 beta functions with: 
                l(1) =   0
                l(2) =   0
                l(3) =   1
                l(4) =   1
     Q(r) pseudized with 0 coefficients 


     atomic species   valence    mass     pseudopotential
        C              4.00    12.01070     C ( 1.00)

     24 Sym. Ops., with inversion, found (12 have fractional translation)


                                    s                        frac. trans.

      isym =  1     identity                                     

 cryst.   s( 1) = (     1          0          0      )
                  (     0          1          0      )
                  (     0          0          1      )

 cart.    s( 1) = (  1.0000000  0.0000000  0.0000000 )
                  (  0.0000000  1.0000000  0.0000000 )
                  (  0.0000000  0.0000000  1.0000000 )


      isym =  2     180 deg rotation - cart. axis [0,0,1]        

 cryst.   s( 2) = (    -1          0          0      )    f =( -0.3333334 )
                  (     0         -1          0      )       (  0.3333333 )
                  (     0          0          1      )       (  0.0000000 )

 cart.    s( 2) = ( -1.0000000  0.0000000  0.0000000 )    f =( -0.5000000 )
                  (  0.0000000 -1.0000000  0.0000000 )       (  0.2886751 )
                  (  0.0000000  0.0000000  1.0000000 )       (  0.0000000 )


      isym =  3     180 deg rotation - cart. axis [0,1,0]        

 cryst.   s( 3) = (    -1          0          0      )
                  (     1          1          0      )
                  (     0          0         -1      )

 cart.    s( 3) = ( -1.0000000  0.0000000  0.0000000 )
                  (  0.0000000  1.0000000  0.0000000 )
                  (  0.0000000  0.0000000 -1.0000000 )


      isym =  4     180 deg rotation - cart. axis [1,0,0]        

 cryst.   s( 4) = (     1          0          0      )    f =( -0.3333334 )
                  (    -1         -1          0      )       (  0.3333333 )
                  (     0          0         -1      )       (  0.0000000 )

 cart.    s( 4) = (  1.0000000  0.0000000  0.0000000 )    f =( -0.5000000 )
                  (  0.0000000 -1.0000000  0.0000000 )       (  0.2886751 )
                  (  0.0000000  0.0000000 -1.0000000 )       (  0.0000000 )


      isym =  5      60 deg rotation - cryst. axis [0,0,1]       

 cryst.   s( 5) = (     1          1          0      )    f =( -0.3333334 )
                  (    -1          0          0      )       (  0.3333334 )
                  (     0          0          1      )       (  0.0000000 )

 cart.    s( 5) = (  0.5000000 -0.8660254  0.0000000 )    f =( -0.5000000 )
                  (  0.8660254  0.5000000  0.0000000 )       (  0.2886751 )
                  (  0.0000000  0.0000000  1.0000000 )       (  0.0000000 )


      isym =  6      60 deg rotation - cryst. axis [0,0,-1]      

 cryst.   s( 6) = (     0         -1          0      )    f =( -0.3333333 )
                  (     1          1          0      )       (  0.3333334 )
                  (     0          0          1      )       (  0.0000000 )

 cart.    s( 6) = (  0.5000000  0.8660254  0.0000000 )    f =( -0.5000000 )
                  ( -0.8660254  0.5000000  0.0000000 )       (  0.2886751 )
                  (  0.0000000  0.0000000  1.0000000 )       (  0.0000000 )


      isym =  7     120 deg rotation - cryst. axis [0,0,1]       

 cryst.   s( 7) = (     0          1          0      )
                  (    -1         -1          0      )
                  (     0          0          1      )

 cart.    s( 7) = ( -0.5000000 -0.8660254  0.0000000 )
                  (  0.8660254 -0.5000000  0.0000000 )
                  (  0.0000000  0.0000000  1.0000000 )


      isym =  8     120 deg rotation - cryst. axis [0,0,-1]      

 cryst.   s( 8) = (    -1         -1          0      )
                  (     1          0          0      )
                  (     0          0          1      )

 cart.    s( 8) = ( -0.5000000  0.8660254  0.0000000 )
                  ( -0.8660254 -0.5000000  0.0000000 )
                  (  0.0000000  0.0000000  1.0000000 )


      isym =  9     180 deg rotation - cryst. axis [1,-1,0]      

 cryst.   s( 9) = (     0         -1          0      )
                  (    -1          0          0      )
                  (     0          0         -1      )

 cart.    s( 9) = (  0.5000000 -0.8660254  0.0000000 )
                  ( -0.8660254 -0.5000000  0.0000000 )
                  (  0.0000000  0.0000000 -1.0000000 )


      isym = 10     180 deg rotation - cryst. axis [2,1,0]       

 cryst.   s(10) = (     1          1          0      )
                  (     0         -1          0      )
                  (     0          0         -1      )

 cart.    s(10) = (  0.5000000  0.8660254  0.0000000 )
                  (  0.8660254 -0.5000000  0.0000000 )
                  (  0.0000000  0.0000000 -1.0000000 )


      isym = 11     180 deg rotation - cryst. axis [0,1,0]       

 cryst.   s(11) = (    -1         -1          0      )    f =( -0.3333334 )
                  (     0          1          0      )       (  0.3333334 )
                  (     0          0         -1      )       (  0.0000000 )

 cart.    s(11) = ( -0.5000000 -0.8660254  0.0000000 )    f =( -0.5000000 )
                  ( -0.8660254  0.5000000  0.0000000 )       (  0.2886751 )
                  (  0.0000000  0.0000000 -1.0000000 )       (  0.0000000 )


      isym = 12     180 deg rotation - cryst. axis [1,1,0]       

 cryst.   s(12) = (     0          1          0      )    f =( -0.3333333 )
                  (     1          0          0      )       (  0.3333334 )
                  (     0          0         -1      )       (  0.0000000 )

 cart.    s(12) = ( -0.5000000  0.8660254  0.0000000 )    f =( -0.5000000 )
                  (  0.8660254  0.5000000  0.0000000 )       (  0.2886751 )
                  (  0.0000000  0.0000000 -1.0000000 )       (  0.0000000 )


      isym = 13     inversion                                    

 cryst.   s(13) = (    -1          0          0      )    f =( -0.3333334 )
                  (     0         -1          0      )       (  0.3333333 )
                  (     0          0         -1      )       (  0.0000000 )

 cart.    s(13) = ( -1.0000000  0.0000000  0.0000000 )    f =( -0.5000000 )
                  (  0.0000000 -1.0000000  0.0000000 )       (  0.2886751 )
                  (  0.0000000  0.0000000 -1.0000000 )       (  0.0000000 )


      isym = 14     inv. 180 deg rotation - cart. axis [0,0,1]   

 cryst.   s(14) = (     1          0          0      )
                  (     0          1          0      )
                  (     0          0         -1      )

 cart.    s(14) = (  1.0000000  0.0000000  0.0000000 )
                  (  0.0000000  1.0000000  0.0000000 )
                  (  0.0000000  0.0000000 -1.0000000 )


      isym = 15     inv. 180 deg rotation - cart. axis [0,1,0]   

 cryst.   s(15) = (     1          0          0      )    f =( -0.3333334 )
                  (    -1         -1          0      )       (  0.3333333 )
                  (     0          0          1      )       (  0.0000000 )

 cart.    s(15) = (  1.0000000  0.0000000  0.0000000 )    f =( -0.5000000 )
                  (  0.0000000 -1.0000000  0.0000000 )       (  0.2886751 )
                  (  0.0000000  0.0000000  1.0000000 )       (  0.0000000 )


      isym = 16     inv. 180 deg rotation - cart. axis [1,0,0]   

 cryst.   s(16) = (    -1          0          0      )
                  (     1          1          0      )
                  (     0          0          1      )

 cart.    s(16) = ( -1.0000000  0.0000000  0.0000000 )
                  (  0.0000000  1.0000000  0.0000000 )
                  (  0.0000000  0.0000000  1.0000000 )


      isym = 17     inv.  60 deg rotation - cryst. axis [0,0,1]  

 cryst.   s(17) = (    -1         -1          0      )
                  (     1          0          0      )
                  (     0          0         -1      )

 cart.    s(17) = ( -0.5000000  0.8660254  0.0000000 )
                  ( -0.8660254 -0.5000000  0.0000000 )
                  (  0.0000000  0.0000000 -1.0000000 )


      isym = 18     inv.  60 deg rotation - cryst. axis [0,0,-1] 

 cryst.   s(18) = (     0          1          0      )
                  (    -1         -1          0      )
                  (     0          0         -1      )

 cart.    s(18) = ( -0.5000000 -0.8660254  0.0000000 )
                  (  0.8660254 -0.5000000  0.0000000 )
                  (  0.0000000  0.0000000 -1.0000000 )


      isym = 19     inv. 120 deg rotation - cryst. axis [0,0,1]  

 cryst.   s(19) = (     0         -1          0      )    f =( -0.3333333 )
                  (     1          1          0      )       (  0.3333334 )
                  (     0          0         -1      )       (  0.0000000 )

 cart.    s(19) = (  0.5000000  0.8660254  0.0000000 )    f =( -0.5000000 )
                  ( -0.8660254  0.5000000  0.0000000 )       (  0.2886751 )
                  (  0.0000000  0.0000000 -1.0000000 )       (  0.0000000 )


      isym = 20     inv. 120 deg rotation - cryst. axis [0,0,-1] 

 cryst.   s(20) = (     1          1          0      )    f =( -0.3333334 )
                  (    -1          0          0      )       (  0.3333334 )
                  (     0          0         -1      )       (  0.0000000 )

 cart.    s(20) = (  0.5000000 -0.8660254  0.0000000 )    f =( -0.5000000 )
                  (  0.8660254  0.5000000  0.0000000 )       (  0.2886751 )
                  (  0.0000000  0.0000000 -1.0000000 )       (  0.0000000 )


      isym = 21     inv. 180 deg rotation - cryst. axis [1,-1,0] 

 cryst.   s(21) = (     0          1          0      )    f =( -0.3333333 )
                  (     1          0          0      )       (  0.3333334 )
                  (     0          0          1      )       (  0.0000000 )

 cart.    s(21) = ( -0.5000000  0.8660254  0.0000000 )    f =( -0.5000000 )
                  (  0.8660254  0.5000000  0.0000000 )       (  0.2886751 )
                  (  0.0000000  0.0000000  1.0000000 )       (  0.0000000 )


      isym = 22     inv. 180 deg rotation - cryst. axis [2,1,0]  

 cryst.   s(22) = (    -1         -1          0      )    f =( -0.3333334 )
                  (     0          1          0      )       (  0.3333334 )
                  (     0          0          1      )       (  0.0000000 )

 cart.    s(22) = ( -0.5000000 -0.8660254  0.0000000 )    f =( -0.5000000 )
                  ( -0.8660254  0.5000000  0.0000000 )       (  0.2886751 )
                  (  0.0000000  0.0000000  1.0000000 )       (  0.0000000 )


      isym = 23     inv. 180 deg rotation - cryst. axis [0,1,0]  

 cryst.   s(23) = (     1          1          0      )
                  (     0         -1          0      )
                  (     0          0          1      )

 cart.    s(23) = (  0.5000000  0.8660254  0.0000000 )
                  (  0.8660254 -0.5000000  0.0000000 )
                  (  0.0000000  0.0000000  1.0000000 )


      isym = 24     inv. 180 deg rotation - cryst. axis [1,1,0]  

 cryst.   s(24) = (     0         -1          0      )
                  (    -1          0          0      )
                  (     0          0          1      )

 cart.    s(24) = (  0.5000000 -0.8660254  0.0000000 )
                  ( -0.8660254 -0.5000000  0.0000000 )
                  (  0.0000000  0.0000000  1.0000000 )


     point group D_6h(6/mmm)
     there are 12 classes
     the character table:

       E     2C6   2C3   C2    3C2'  3C2'' i     2S3   2S6   s_h   3s_d  3s_v 
A_1g   1.00  1.00  1.00  1.00  1.00  1.00  1.00  1.00  1.00  1.00  1.00  1.00
A_2g   1.00  1.00  1.00  1.00 -1.00 -1.00  1.00  1.00  1.00  1.00 -1.00 -1.00
B_1g   1.00 -1.00  1.00 -1.00  1.00 -1.00  1.00 -1.00  1.00 -1.00  1.00 -1.00
B_2g   1.00 -1.00  1.00 -1.00 -1.00  1.00  1.00 -1.00  1.00 -1.00 -1.00  1.00
E_1g   2.00  1.00 -1.00 -2.00  0.00  0.00  2.00  1.00 -1.00 -2.00  0.00  0.00
E_2g   2.00 -1.00 -1.00  2.00  0.00  0.00  2.00 -1.00 -1.00  2.00  0.00  0.00
A_1u   1.00  1.00  1.00  1.00  1.00  1.00 -1.00 -1.00 -1.00 -1.00 -1.00 -1.00
A_2u   1.00  1.00  1.00  1.00 -1.00 -1.00 -1.00 -1.00 -1.00 -1.00  1.00  1.00
B_1u   1.00 -1.00  1.00 -1.00  1.00 -1.00 -1.00  1.00 -1.00  1.00 -1.00  1.00
B_2u   1.00 -1.00  1.00 -1.00 -1.00  1.00 -1.00  1.00 -1.00  1.00  1.00 -1.00
E_1u   2.00  1.00 -1.00 -2.00  0.00  0.00 -2.00 -1.00  1.00  2.00  0.00  0.00
E_2u   2.00 -1.00 -1.00  2.00  0.00  0.00 -2.00  1.00  1.00 -2.00  0.00  0.00

     the symmetry operations in each class and the name of the first element:

     E        1
          identity                                               
     2C6      5    6
           60 deg rotation - cryst. axis [0,0,1]                 
     2C3      7    8
          120 deg rotation - cryst. axis [0,0,1]                 
     C2       2
          180 deg rotation - cart. axis [0,0,1]                  
     3C2'     4   12   11
          180 deg rotation - cart. axis [1,0,0]                  
     3C2''    3    9   10
          180 deg rotation - cart. axis [0,1,0]                  
     i       13
          inversion                                              
     2S3     17   18
          inv.  60 deg rotation - cryst. axis [0,0,1]            
     2S6     19   20
          inv. 120 deg rotation - cryst. axis [0,0,1]            
     s_h     14
          inv. 180 deg rotation - cart. axis [0,0,1]             
     3s_d    16   24   23
          inv. 180 deg rotation - cart. axis [1,0,0]             
     3s_v    15   21   22
          inv. 180 deg rotation - cart. axis [0,1,0]             

   Cartesian axes

     site n.     atom                  positions (alat units)
         1           C   tau(   1) = (   0.0000000   0.0000000   0.0000000  )
         2           C   tau(   2) = (   0.0000000   0.5773503   0.0000000  )

   Crystallographic axes

     site n.     atom                  positions (cryst. coord.)
         1           C   tau(   1) = (  0.0000000  0.0000000  0.0000000  )
         2           C   tau(   2) = (  0.3333334  0.6666667  0.0000000  )

     number of k points=    16
                       cart. coord. in units 2pi/alat
        k(    1) = (   0.0000000   0.0000000   0.0000000), wk =   0.0165289
        k(    2) = (   0.0000000   0.1049728   0.0000000), wk =   0.0991736
        k(    3) = (   0.0000000   0.2099456   0.0000000), wk =   0.0991736
        k(    4) = (   0.0000000   0.3149183   0.0000000), wk =   0.0991736
        k(    5) = (   0.0000000   0.4198911   0.0000000), wk =   0.0991736
        k(    6) = (   0.0000000   0.5248639   0.0000000), wk =   0.0991736
        k(    7) = (   0.0909091   0.1574592   0.0000000), wk =   0.0991736
        k(    8) = (   0.0909091   0.2624319   0.0000000), wk =   0.1983471
        k(    9) = (   0.0909091   0.3674047   0.0000000), wk =   0.1983471
        k(   10) = (   0.0909091   0.4723775   0.0000000), wk =   0.1983471
        k(   11) = (   0.0909091   0.5773503   0.0000000), wk =   0.0991736
        k(   12) = (   0.1818182   0.3149183   0.0000000), wk =   0.0991736
        k(   13) = (   0.1818182   0.4198911   0.0000000), wk =   0.1983471
        k(   14) = (   0.1818182   0.5248639   0.0000000), wk =   0.1983471
        k(   15) = (   0.2727273   0.4723775   0.0000000), wk =   0.0991736
        k(   16) = (   0.2727273   0.5773503   0.0000000), wk =   0.0991736

                       cryst. coord.
        k(    1) = (   0.0000000   0.0000000   0.0000000), wk =   0.0165289
        k(    2) = (   0.0000000   0.0909091   0.0000000), wk =   0.0991736
        k(    3) = (   0.0000000   0.1818182   0.0000000), wk =   0.0991736
        k(    4) = (   0.0000000   0.2727273   0.0000000), wk =   0.0991736
        k(    5) = (   0.0000000   0.3636364   0.0000000), wk =   0.0991736
        k(    6) = (   0.0000000   0.4545455   0.0000000), wk =   0.0991736
        k(    7) = (   0.0909091   0.0909091   0.0000000), wk =   0.0991736
        k(    8) = (   0.0909091   0.1818182   0.0000000), wk =   0.1983471
        k(    9) = (   0.0909091   0.2727273   0.0000000), wk =   0.1983471
        k(   10) = (   0.0909091   0.3636364   0.0000000), wk =   0.1983471
        k(   11) = (   0.0909091   0.4545455   0.0000000), wk =   0.0991736
        k(   12) = (   0.1818182   0.1818182   0.0000000), wk =   0.0991736
        k(   13) = (   0.1818182   0.2727273   0.0000000), wk =   0.1983471
        k(   14) = (   0.1818182   0.3636364   0.0000000), wk =   0.1983471
        k(   15) = (   0.2727273   0.2727273   0.0000000), wk =   0.0991736
        k(   16) = (   0.2727273   0.3636364   0.0000000), wk =   0.0991736

     Dense  grid:    35435 G-vectors     FFT dimensions: (  30,  30,  90)

     Smooth grid:     8973 G-vectors     FFT dimensions: (  24,  24,  60)

     Dynamical RAM for                 wfc:       0.07 MB

     Dynamical RAM for     wfc (w. buffer):       1.16 MB

     Dynamical RAM for           str. fact:       0.54 MB

     Dynamical RAM for           local pot:       0.00 MB

     Dynamical RAM for          nlocal pot:       0.27 MB

     Dynamical RAM for                qrad:       0.46 MB

     Dynamical RAM for          rho,v,vnew:       3.48 MB

     Dynamical RAM for               rhoin:       1.16 MB

     Dynamical RAM for            rho*nmix:       8.65 MB

     Dynamical RAM for           G-vectors:       2.10 MB

     Dynamical RAM for          h,s,v(r/c):       0.00 MB

     Dynamical RAM for          <psi|beta>:       0.00 MB

     Dynamical RAM for                 psi:       0.14 MB

     Dynamical RAM for                hpsi:       0.14 MB

     Dynamical RAM for                spsi:       0.14 MB

     Dynamical RAM for      wfcinit/wfcrot:       0.27 MB

     Dynamical RAM for           addusdens:      24.33 MB

     Estimated static dynamical RAM per process >      13.34 MB

     Estimated max dynamical RAM per process >      46.32 MB

     Check: negative core charge=   -0.000002

     Initial potential from superposition of free atoms

     starting charge       7.9999, renormalised to       8.0000
     Starting wfcs are    8 randomized atomic wfcs

     total cpu time spent up to now is        0.5 secs

     Self-consistent Calculation

     iteration #  1     ecut=    40.00 Ry     beta= 0.70
     Davidson diagonalization with overlap

---- Real-time Memory Report at c_bands before calling an iterative solver
            68 MiB given to the printing process from OS
             0 MiB allocation reported by mallinfo(arena+hblkhd)
          1213 MiB available memory on the node where the printing process lives
------------------
     ethr =  1.00E-02,  avg # of iterations =  3.2

     total cpu time spent up to now is        0.9 secs

     total energy              =     -23.90888005 Ry
     estimated scf accuracy    <       0.13064269 Ry

     iteration #  2     ecut=    40.00 Ry     beta= 0.70
     Davidson diagonalization with overlap

---- Real-time Memory Report at c_bands before calling an iterative solver
            79 MiB given to the printing process from OS
             0 MiB allocation reported by mallinfo(arena+hblkhd)
          1179 MiB available memory on the node where the printing process lives
------------------
     ethr =  1.63E-03,  avg # of iterations =  2.0

     negative rho (up, down):  1.916E-06 0.000E+00

     total cpu time spent up to now is        1.1 secs

     total energy              =     -23.92230702 Ry
     estimated scf accuracy    <       0.01051543 Ry

     iteration #  3     ecut=    40.00 Ry     beta= 0.70
     Davidson diagonalization with overlap

---- Real-time Memory Report at c_bands before calling an iterative solver
            80 MiB given to the printing process from OS
             0 MiB allocation reported by mallinfo(arena+hblkhd)
          1178 MiB available memory on the node where the printing process lives
------------------
     ethr =  1.31E-04,  avg # of iterations =  4.6

     negative rho (up, down):  1.432E-08 0.000E+00

     total cpu time spent up to now is        1.5 secs

     total energy              =     -23.92870712 Ry
     estimated scf accuracy    <       0.00291106 Ry

     iteration #  4     ecut=    40.00 Ry     beta= 0.70
     Davidson diagonalization with overlap

---- Real-time Memory Report at c_bands before calling an iterative solver
            80 MiB given to the printing process from OS
             0 MiB allocation reported by mallinfo(arena+hblkhd)
          1175 MiB available memory on the node where the printing process lives
------------------
     ethr =  3.64E-05,  avg # of iterations =  3.4

     negative rho (up, down):  1.283E-06 0.000E+00

     total cpu time spent up to now is        1.7 secs

     total energy              =     -23.92941561 Ry
     estimated scf accuracy    <       0.00015978 Ry

     iteration #  5     ecut=    40.00 Ry     beta= 0.70
     Davidson diagonalization with overlap

---- Real-time Memory Report at c_bands before calling an iterative solver
            80 MiB given to the printing process from OS
             0 MiB allocation reported by mallinfo(arena+hblkhd)
          1172 MiB available memory on the node where the printing process lives
------------------
     ethr =  2.00E-06,  avg # of iterations =  5.3

     negative rho (up, down):  1.216E-06 0.000E+00

     total cpu time spent up to now is        2.1 secs

     total energy              =     -23.92953137 Ry
     estimated scf accuracy    <       0.00006318 Ry

     iteration #  6     ecut=    40.00 Ry     beta= 0.70
     Davidson diagonalization with overlap

---- Real-time Memory Report at c_bands before calling an iterative solver
            81 MiB given to the printing process from OS
             0 MiB allocation reported by mallinfo(arena+hblkhd)
          1168 MiB available memory on the node where the printing process lives
------------------
     ethr =  7.90E-07,  avg # of iterations =  2.9

     negative rho (up, down):  1.122E-06 0.000E+00

     total cpu time spent up to now is        2.4 secs

     total energy              =     -23.92954602 Ry
     estimated scf accuracy    <       0.00000183 Ry

     iteration #  7     ecut=    40.00 Ry     beta= 0.70
     Davidson diagonalization with overlap

---- Real-time Memory Report at c_bands before calling an iterative solver
            81 MiB given to the printing process from OS
             0 MiB allocation reported by mallinfo(arena+hblkhd)
          1167 MiB available memory on the node where the printing process lives
------------------
     ethr =  2.29E-08,  avg # of iterations =  8.9

     negative rho (up, down):  1.143E-06 0.000E+00

     total cpu time spent up to now is        3.0 secs

     total energy              =     -23.92955242 Ry
     estimated scf accuracy    <       0.00000211 Ry

     iteration #  8     ecut=    40.00 Ry     beta= 0.70
     Davidson diagonalization with overlap

---- Real-time Memory Report at c_bands before calling an iterative solver
            81 MiB given to the printing process from OS
             0 MiB allocation reported by mallinfo(arena+hblkhd)
          1174 MiB available memory on the node where the printing process lives
------------------
     ethr =  2.29E-08,  avg # of iterations =  1.6

     negative rho (up, down):  1.148E-06 0.000E+00

     total cpu time spent up to now is        3.2 secs

     total energy              =     -23.92955226 Ry
     estimated scf accuracy    <       0.00000041 Ry

     iteration #  9     ecut=    40.00 Ry     beta= 0.70
     Davidson diagonalization with overlap

---- Real-time Memory Report at c_bands before calling an iterative solver
            82 MiB given to the printing process from OS
             0 MiB allocation reported by mallinfo(arena+hblkhd)
          1174 MiB available memory on the node where the printing process lives
------------------
     ethr =  5.10E-09,  avg # of iterations =  4.8

     negative rho (up, down):  1.152E-06 0.000E+00

     total cpu time spent up to now is        3.5 secs

     total energy              =     -23.92955254 Ry
     estimated scf accuracy    <       0.00000003 Ry

     iteration # 10     ecut=    40.00 Ry     beta= 0.70
     Davidson diagonalization with overlap

---- Real-time Memory Report at c_bands before calling an iterative solver
            82 MiB given to the printing process from OS
             0 MiB allocation reported by mallinfo(arena+hblkhd)
          1174 MiB available memory on the node where the printing process lives
------------------
     ethr =  3.47E-10,  avg # of iterations =  4.9

     negative rho (up, down):  1.153E-06 0.000E+00

     total cpu time spent up to now is        3.9 secs

     total energy              =     -23.92955253 Ry
     estimated scf accuracy    <       0.00000004 Ry

     iteration # 11     ecut=    40.00 Ry     beta= 0.70
     Davidson diagonalization with overlap

---- Real-time Memory Report at c_bands before calling an iterative solver
            82 MiB given to the printing process from OS
             0 MiB allocation reported by mallinfo(arena+hblkhd)
          1174 MiB available memory on the node where the printing process lives
------------------
     ethr =  3.47E-10,  avg # of iterations =  5.7

     negative rho (up, down):  1.154E-06 0.000E+00

     total cpu time spent up to now is        4.2 secs

     total energy              =     -23.92955253 Ry
     estimated scf accuracy    <       0.00000005 Ry

     iteration # 12     ecut=    40.00 Ry     beta= 0.70
     Davidson diagonalization with overlap

---- Real-time Memory Report at c_bands before calling an iterative solver
            82 MiB given to the printing process from OS
             0 MiB allocation reported by mallinfo(arena+hblkhd)
          1174 MiB available memory on the node where the printing process lives
------------------
     ethr =  3.47E-10,  avg # of iterations =  3.9

     negative rho (up, down):  1.154E-06 0.000E+00

     total cpu time spent up to now is        4.5 secs

     End of self-consistent calculation

          k = 0.0000 0.0000 0.0000 (  1133 PWs)   bands (ev):

   -18.7148  -7.0487  -2.4188  -2.4188

     occupation numbers 
     1.0000   1.0000   1.0000   1.0000

          k = 0.0000 0.1050 0.0000 (  1122 PWs)   bands (ev):

   -18.5205  -6.8144  -3.1687  -2.8175

     occupation numbers 
     1.0000   1.0000   1.0000   1.0000

          k = 0.0000 0.2099 0.0000 (  1132 PWs)   bands (ev):

   -17.9403  -6.1190  -5.0179  -3.7149

     occupation numbers 
     1.0000   1.0000   1.0000   1.0000

          k = 0.0000 0.3149 0.0000 (  1110 PWs)   bands (ev):

   -16.9821  -7.3286  -4.9912  -4.6545

     occupation numbers 
     1.0000   1.0000   1.0000   1.0000

          k = 0.0000 0.4199 0.0000 (  1118 PWs)   bands (ev):

   -15.6634  -9.6964  -5.3734  -3.5153

     occupation numbers 
     1.0000   1.0000   1.0000   1.0000

          k = 0.0000 0.5249 0.0000 (  1124 PWs)   bands (ev):

   -14.0457 -11.8751  -5.7548  -2.0452

     occupation numbers 
     1.0000   1.0000   1.0000   1.0000

          k = 0.0909 0.1575 0.0000 (  1123 PWs)   bands (ev):

   -18.1333  -6.3494  -4.3205  -3.6154

     occupation numbers 
     1.0000   1.0000   1.0000   1.0000

          k = 0.0909 0.2624 0.0000 (  1121 PWs)   bands (ev):

   -17.3641  -6.2084  -5.4357  -4.7296

     occupation numbers 
     1.0000   1.0000   1.0000   1.0000

          k = 0.0909 0.3674 0.0000 (  1125 PWs)   bands (ev):

   -16.2255  -8.4675  -5.6397  -4.1207

     occupation numbers 
     1.0000   1.0000   1.0000   1.0000

          k = 0.0909 0.4724 0.0000 (  1121 PWs)   bands (ev):

   -14.7470 -10.7224  -6.2169  -2.5612

     occupation numbers 
     1.0000   1.0000   1.0000   1.0000

          k = 0.0909 0.5774 0.0000 (  1114 PWs)   bands (ev):

   -13.3091 -12.4336  -6.4139  -1.5658

     occupation numbers 
     1.0000   1.0000   1.0000   1.0000

          k = 0.1818 0.3149 0.0000 (  1125 PWs)   bands (ev):

   -16.4145  -7.5799  -6.2818  -4.3273

     occupation numbers 
     1.0000   1.0000   1.0000   1.0000

          k = 0.1818 0.4199 0.0000 (  1122 PWs)   bands (ev):

   -15.1128  -9.4266  -7.3538  -2.8696

     occupation numbers 
     1.0000   1.0000   1.0000   1.0000

          k = 0.1818 0.5249 0.0000 (  1104 PWs)   bands (ev):

   -13.5296 -11.4262  -7.8188  -1.3660

     occupation numbers 
     1.0000   1.0000   1.0000   1.0000

          k = 0.2727 0.4724 0.0000 (  1105 PWs)   bands (ev):

   -13.6881 -10.3862  -8.9648  -1.3449

     occupation numbers 
     1.0000   1.0000   1.0000   1.0000

          k = 0.2727 0.5774 0.0000 (  1110 PWs)   bands (ev):

   -12.3276 -11.6274  -9.4957  -0.1545

     occupation numbers 
     1.0000   1.0000   1.0000   1.0000

     highest occupied level (ev):    -0.1545

!    total energy              =     -23.92955254 Ry
     estimated scf accuracy    <          8.8E-11 Ry

     The total energy is the sum of the following terms:
     one-electron contribution =     -56.30671708 Ry
     hartree contribution      =      30.32420724 Ry
     xc contribution           =      -8.25769229 Ry
     ewald contribution        =      10.31064959 Ry

     convergence has been achieved in  12 iterations

     Writing all to output data dir ./tmp/graphene/graphene.save/

     init_run     :      0.43s CPU      0.48s WALL (       1 calls)
     electrons    :      3.88s CPU      3.95s WALL (       1 calls)

     Called by init_run:
     wfcinit      :      0.13s CPU      0.13s WALL (       1 calls)
     wfcinit:atom :      0.00s CPU      0.00s WALL (      16 calls)
     wfcinit:wfcr :      0.11s CPU      0.11s WALL (      16 calls)
     potinit      :      0.02s CPU      0.02s WALL (       1 calls)
     hinit0       :      0.25s CPU      0.29s WALL (       1 calls)

     Called by electrons:
     c_bands      :      2.89s CPU      2.93s WALL (      12 calls)
     sum_band     :      0.65s CPU      0.68s WALL (      12 calls)
     v_of_rho     :      0.08s CPU      0.08s WALL (      13 calls)
     v_h          :      0.02s CPU      0.02s WALL (      13 calls)
     v_xc         :      0.06s CPU      0.06s WALL (      13 calls)
     newd         :      0.20s CPU      0.21s WALL (      13 calls)
     mix_rho      :      0.04s CPU      0.04s WALL (      12 calls)

     Called by c_bands:
     init_us_2    :      0.10s CPU      0.10s WALL (     400 calls)
     init_us_2:cp :      0.10s CPU      0.10s WALL (     400 calls)
     cegterg      :      2.76s CPU      2.80s WALL (     192 calls)

     Called by sum_band:
     sum_band:wei :      0.00s CPU      0.00s WALL (      12 calls)
     sum_band:loo :      0.39s CPU      0.40s WALL (      12 calls)
     sum_band:buf :      0.00s CPU      0.00s WALL (     192 calls)
     sum_band:ini :      0.05s CPU      0.05s WALL (     192 calls)
     sum_band:cal :      0.01s CPU      0.01s WALL (     192 calls)
     sum_band:bec :      0.00s CPU      0.00s WALL (     192 calls)
     addusdens    :      0.20s CPU      0.22s WALL (      12 calls)
                                        0.00s GPU  (      12 calls)
     addusd:skk   :      0.00s CPU      0.00s WALL (      12 calls)
                                        0.00s GPU  (      12 calls)

     Called by *egterg:
     cdiaghg      :      0.05s CPU      0.05s WALL (    1012 calls)
     cegterg:over :      0.04s CPU      0.04s WALL (     820 calls)
     cegterg:upda :      0.03s CPU      0.03s WALL (     820 calls)
     cegterg:last :      0.05s CPU      0.05s WALL (     653 calls)
     h_psi        :      2.59s CPU      2.63s WALL (    1028 calls)
     s_psi        :      0.04s CPU      0.04s WALL (    1028 calls)
     g_psi        :      0.02s CPU      0.02s WALL (     820 calls)

     Called by h_psi:
     h_psi:calbec :      0.05s CPU      0.05s WALL (    1028 calls)
     vloc_psi     :      2.49s CPU      2.53s WALL (    1028 calls)
     add_vuspsi   :      0.04s CPU      0.04s WALL (    1028 calls)

     General routines
     calbec       :      0.05s CPU      0.05s WALL (    1220 calls)
     fft          :      0.07s CPU      0.11s WALL (      76 calls)
     ffts         :      0.01s CPU      0.01s WALL (      25 calls)
     fftw         :      2.36s CPU      2.39s WALL (    7038 calls)
     interpolate  :      0.02s CPU      0.02s WALL (      13 calls)

     Parallel routines

     PWSCF        :      4.36s CPU      4.50s WALL


   This run was terminated on:  11:34:41   4Jul2023            

=------------------------------------------------------------------------------=
   JOB DONE.
=------------------------------------------------------------------------------=
