
     Program PWSCF v.7.2 starts on  4Jul2023 at 11:34:54 

     This program is part of the open-source Quantum ESPRESSO suite
     for quantum simulation of materials; please cite
         "P. Giannozzi et al., J. Phys.:Condens. Matter 21 395502 (2009);
         "P. Giannozzi et al., J. Phys.:Condens. Matter 29 465901 (2017);
         "P. Giannozzi et al., J. Chem. Phys. 152 154105 (2020);
          URL http://www.quantum-espresso.org", 
     in publications or presentations arising from this work. More details at
     http://www.quantum-espresso.org/quote

     Parallel version (MPI), running on     1 processors

     MPI processes distributed on     1 nodes
     1222 MiB available memory on the printing compute node when the environment starts

     Waiting for input...
     Reading input from standard input

     Current dimensions of program PWSCF are:
     Max number of different atomic species (ntypx) = 10
     Max number of k-points (npk) =  40000
     Max angular momentum in pseudopotentials (lmaxx) =  4

     Subspace diagonalization in iterative solution of the eigenvalue problem:
     a serial algorithm will be used


     G-vector sticks info
     --------------------
     sticks:   dense  smooth     PW     G-vecs:    dense   smooth      PW
     Sum         595     241     85                35435     8973    1651

     Using Slab Decomposition



     bravais-lattice index     =            4
     lattice parameter (alat)  =       4.6540  a.u.
     unit-cell volume          =     261.8973 (a.u.)^3
     number of atoms/cell      =            2
     number of atomic types    =            1
     number of electrons       =         8.00
     number of Kohn-Sham states=            4
     kinetic-energy cutoff     =      40.0000  Ry
     charge density cutoff     =     400.0000  Ry
     scf convergence threshold =      1.0E-08
     mixing beta               =       0.7000
     number of iterations used =            8  plain     mixing
     Exchange-correlation= LDA
                           (   1   1   0   0   0   0   0)

     celldm(1)=   4.654000  celldm(2)=   0.000000  celldm(3)=   3.000000
     celldm(4)=   0.000000  celldm(5)=   0.000000  celldm(6)=   0.000000

     crystal axes: (cart. coord. in units of alat)
               a(1) = (   1.000000   0.000000   0.000000 )  
               a(2) = (  -0.500000   0.866025   0.000000 )  
               a(3) = (   0.000000   0.000000   3.000000 )  

     reciprocal axes: (cart. coord. in units 2 pi/alat)
               b(1) = (  1.000000  0.577350 -0.000000 )  
               b(2) = (  0.000000  1.154701  0.000000 )  
               b(3) = (  0.000000 -0.000000  0.333333 )  


     PseudoPot. # 1 for C  read from file:
     ./C.pz-n-rrkjus_psl.0.1.UPF
     MD5 check sum: a3cecbabebb5b3a1aff122f23eb09bb0
     Pseudo is Ultrasoft + core correction, Zval =  4.0
     Generated using "atomic" code by A. Dal Corso  v.5.0.2 svn rev. 9415
     Using radial grid of 1073 points,  4 beta functions with: 
                l(1) =   0
                l(2) =   0
                l(3) =   1
                l(4) =   1
     Q(r) pseudized with 0 coefficients 


     atomic species   valence    mass     pseudopotential
        C              4.00    12.01070     C ( 1.00)

     24 Sym. Ops., with inversion, found (12 have fractional translation)


                                    s                        frac. trans.

      isym =  1     identity                                     

 cryst.   s( 1) = (     1          0          0      )
                  (     0          1          0      )
                  (     0          0          1      )

 cart.    s( 1) = (  1.0000000  0.0000000  0.0000000 )
                  (  0.0000000  1.0000000  0.0000000 )
                  (  0.0000000  0.0000000  1.0000000 )


      isym =  2     180 deg rotation - cart. axis [0,0,1]        

 cryst.   s( 2) = (    -1          0          0      )    f =( -0.3333334 )
                  (     0         -1          0      )       (  0.3333333 )
                  (     0          0          1      )       (  0.0000000 )

 cart.    s( 2) = ( -1.0000000  0.0000000  0.0000000 )    f =( -0.5000000 )
                  (  0.0000000 -1.0000000  0.0000000 )       (  0.2886751 )
                  (  0.0000000  0.0000000  1.0000000 )       (  0.0000000 )


      isym =  3     180 deg rotation - cart. axis [0,1,0]        

 cryst.   s( 3) = (    -1          0          0      )
                  (     1          1          0      )
                  (     0          0         -1      )

 cart.    s( 3) = ( -1.0000000  0.0000000  0.0000000 )
                  (  0.0000000  1.0000000  0.0000000 )
                  (  0.0000000  0.0000000 -1.0000000 )


      isym =  4     180 deg rotation - cart. axis [1,0,0]        

 cryst.   s( 4) = (     1          0          0      )    f =( -0.3333334 )
                  (    -1         -1          0      )       (  0.3333333 )
                  (     0          0         -1      )       (  0.0000000 )

 cart.    s( 4) = (  1.0000000  0.0000000  0.0000000 )    f =( -0.5000000 )
                  (  0.0000000 -1.0000000  0.0000000 )       (  0.2886751 )
                  (  0.0000000  0.0000000 -1.0000000 )       (  0.0000000 )


      isym =  5      60 deg rotation - cryst. axis [0,0,1]       

 cryst.   s( 5) = (     1          1          0      )    f =( -0.3333334 )
                  (    -1          0          0      )       (  0.3333334 )
                  (     0          0          1      )       (  0.0000000 )

 cart.    s( 5) = (  0.5000000 -0.8660254  0.0000000 )    f =( -0.5000000 )
                  (  0.8660254  0.5000000  0.0000000 )       (  0.2886751 )
                  (  0.0000000  0.0000000  1.0000000 )       (  0.0000000 )


      isym =  6      60 deg rotation - cryst. axis [0,0,-1]      

 cryst.   s( 6) = (     0         -1          0      )    f =( -0.3333333 )
                  (     1          1          0      )       (  0.3333334 )
                  (     0          0          1      )       (  0.0000000 )

 cart.    s( 6) = (  0.5000000  0.8660254  0.0000000 )    f =( -0.5000000 )
                  ( -0.8660254  0.5000000  0.0000000 )       (  0.2886751 )
                  (  0.0000000  0.0000000  1.0000000 )       (  0.0000000 )


      isym =  7     120 deg rotation - cryst. axis [0,0,1]       

 cryst.   s( 7) = (     0          1          0      )
                  (    -1         -1          0      )
                  (     0          0          1      )

 cart.    s( 7) = ( -0.5000000 -0.8660254  0.0000000 )
                  (  0.8660254 -0.5000000  0.0000000 )
                  (  0.0000000  0.0000000  1.0000000 )


      isym =  8     120 deg rotation - cryst. axis [0,0,-1]      

 cryst.   s( 8) = (    -1         -1          0      )
                  (     1          0          0      )
                  (     0          0          1      )

 cart.    s( 8) = ( -0.5000000  0.8660254  0.0000000 )
                  ( -0.8660254 -0.5000000  0.0000000 )
                  (  0.0000000  0.0000000  1.0000000 )


      isym =  9     180 deg rotation - cryst. axis [1,-1,0]      

 cryst.   s( 9) = (     0         -1          0      )
                  (    -1          0          0      )
                  (     0          0         -1      )

 cart.    s( 9) = (  0.5000000 -0.8660254  0.0000000 )
                  ( -0.8660254 -0.5000000  0.0000000 )
                  (  0.0000000  0.0000000 -1.0000000 )


      isym = 10     180 deg rotation - cryst. axis [2,1,0]       

 cryst.   s(10) = (     1          1          0      )
                  (     0         -1          0      )
                  (     0          0         -1      )

 cart.    s(10) = (  0.5000000  0.8660254  0.0000000 )
                  (  0.8660254 -0.5000000  0.0000000 )
                  (  0.0000000  0.0000000 -1.0000000 )


      isym = 11     180 deg rotation - cryst. axis [0,1,0]       

 cryst.   s(11) = (    -1         -1          0      )    f =( -0.3333334 )
                  (     0          1          0      )       (  0.3333334 )
                  (     0          0         -1      )       (  0.0000000 )

 cart.    s(11) = ( -0.5000000 -0.8660254  0.0000000 )    f =( -0.5000000 )
                  ( -0.8660254  0.5000000  0.0000000 )       (  0.2886751 )
                  (  0.0000000  0.0000000 -1.0000000 )       (  0.0000000 )


      isym = 12     180 deg rotation - cryst. axis [1,1,0]       

 cryst.   s(12) = (     0          1          0      )    f =( -0.3333333 )
                  (     1          0          0      )       (  0.3333334 )
                  (     0          0         -1      )       (  0.0000000 )

 cart.    s(12) = ( -0.5000000  0.8660254  0.0000000 )    f =( -0.5000000 )
                  (  0.8660254  0.5000000  0.0000000 )       (  0.2886751 )
                  (  0.0000000  0.0000000 -1.0000000 )       (  0.0000000 )


      isym = 13     inversion                                    

 cryst.   s(13) = (    -1          0          0      )    f =( -0.3333334 )
                  (     0         -1          0      )       (  0.3333333 )
                  (     0          0         -1      )       (  0.0000000 )

 cart.    s(13) = ( -1.0000000  0.0000000  0.0000000 )    f =( -0.5000000 )
                  (  0.0000000 -1.0000000  0.0000000 )       (  0.2886751 )
                  (  0.0000000  0.0000000 -1.0000000 )       (  0.0000000 )


      isym = 14     inv. 180 deg rotation - cart. axis [0,0,1]   

 cryst.   s(14) = (     1          0          0      )
                  (     0          1          0      )
                  (     0          0         -1      )

 cart.    s(14) = (  1.0000000  0.0000000  0.0000000 )
                  (  0.0000000  1.0000000  0.0000000 )
                  (  0.0000000  0.0000000 -1.0000000 )


      isym = 15     inv. 180 deg rotation - cart. axis [0,1,0]   

 cryst.   s(15) = (     1          0          0      )    f =( -0.3333334 )
                  (    -1         -1          0      )       (  0.3333333 )
                  (     0          0          1      )       (  0.0000000 )

 cart.    s(15) = (  1.0000000  0.0000000  0.0000000 )    f =( -0.5000000 )
                  (  0.0000000 -1.0000000  0.0000000 )       (  0.2886751 )
                  (  0.0000000  0.0000000  1.0000000 )       (  0.0000000 )


      isym = 16     inv. 180 deg rotation - cart. axis [1,0,0]   

 cryst.   s(16) = (    -1          0          0      )
                  (     1          1          0      )
                  (     0          0          1      )

 cart.    s(16) = ( -1.0000000  0.0000000  0.0000000 )
                  (  0.0000000  1.0000000  0.0000000 )
                  (  0.0000000  0.0000000  1.0000000 )


      isym = 17     inv.  60 deg rotation - cryst. axis [0,0,1]  

 cryst.   s(17) = (    -1         -1          0      )
                  (     1          0          0      )
                  (     0          0         -1      )

 cart.    s(17) = ( -0.5000000  0.8660254  0.0000000 )
                  ( -0.8660254 -0.5000000  0.0000000 )
                  (  0.0000000  0.0000000 -1.0000000 )


      isym = 18     inv.  60 deg rotation - cryst. axis [0,0,-1] 

 cryst.   s(18) = (     0          1          0      )
                  (    -1         -1          0      )
                  (     0          0         -1      )

 cart.    s(18) = ( -0.5000000 -0.8660254  0.0000000 )
                  (  0.8660254 -0.5000000  0.0000000 )
                  (  0.0000000  0.0000000 -1.0000000 )


      isym = 19     inv. 120 deg rotation - cryst. axis [0,0,1]  

 cryst.   s(19) = (     0         -1          0      )    f =( -0.3333333 )
                  (     1          1          0      )       (  0.3333334 )
                  (     0          0         -1      )       (  0.0000000 )

 cart.    s(19) = (  0.5000000  0.8660254  0.0000000 )    f =( -0.5000000 )
                  ( -0.8660254  0.5000000  0.0000000 )       (  0.2886751 )
                  (  0.0000000  0.0000000 -1.0000000 )       (  0.0000000 )


      isym = 20     inv. 120 deg rotation - cryst. axis [0,0,-1] 

 cryst.   s(20) = (     1          1          0      )    f =( -0.3333334 )
                  (    -1          0          0      )       (  0.3333334 )
                  (     0          0         -1      )       (  0.0000000 )

 cart.    s(20) = (  0.5000000 -0.8660254  0.0000000 )    f =( -0.5000000 )
                  (  0.8660254  0.5000000  0.0000000 )       (  0.2886751 )
                  (  0.0000000  0.0000000 -1.0000000 )       (  0.0000000 )


      isym = 21     inv. 180 deg rotation - cryst. axis [1,-1,0] 

 cryst.   s(21) = (     0          1          0      )    f =( -0.3333333 )
                  (     1          0          0      )       (  0.3333334 )
                  (     0          0          1      )       (  0.0000000 )

 cart.    s(21) = ( -0.5000000  0.8660254  0.0000000 )    f =( -0.5000000 )
                  (  0.8660254  0.5000000  0.0000000 )       (  0.2886751 )
                  (  0.0000000  0.0000000  1.0000000 )       (  0.0000000 )


      isym = 22     inv. 180 deg rotation - cryst. axis [2,1,0]  

 cryst.   s(22) = (    -1         -1          0      )    f =( -0.3333334 )
                  (     0          1          0      )       (  0.3333334 )
                  (     0          0          1      )       (  0.0000000 )

 cart.    s(22) = ( -0.5000000 -0.8660254  0.0000000 )    f =( -0.5000000 )
                  ( -0.8660254  0.5000000  0.0000000 )       (  0.2886751 )
                  (  0.0000000  0.0000000  1.0000000 )       (  0.0000000 )


      isym = 23     inv. 180 deg rotation - cryst. axis [0,1,0]  

 cryst.   s(23) = (     1          1          0      )
                  (     0         -1          0      )
                  (     0          0          1      )

 cart.    s(23) = (  0.5000000  0.8660254  0.0000000 )
                  (  0.8660254 -0.5000000  0.0000000 )
                  (  0.0000000  0.0000000  1.0000000 )


      isym = 24     inv. 180 deg rotation - cryst. axis [1,1,0]  

 cryst.   s(24) = (     0         -1          0      )
                  (    -1          0          0      )
                  (     0          0          1      )

 cart.    s(24) = (  0.5000000 -0.8660254  0.0000000 )
                  ( -0.8660254 -0.5000000  0.0000000 )
                  (  0.0000000  0.0000000  1.0000000 )


     point group D_6h(6/mmm)
     there are 12 classes
     the character table:

       E     2C6   2C3   C2    3C2'  3C2'' i     2S3   2S6   s_h   3s_d  3s_v 
A_1g   1.00  1.00  1.00  1.00  1.00  1.00  1.00  1.00  1.00  1.00  1.00  1.00
A_2g   1.00  1.00  1.00  1.00 -1.00 -1.00  1.00  1.00  1.00  1.00 -1.00 -1.00
B_1g   1.00 -1.00  1.00 -1.00  1.00 -1.00  1.00 -1.00  1.00 -1.00  1.00 -1.00
B_2g   1.00 -1.00  1.00 -1.00 -1.00  1.00  1.00 -1.00  1.00 -1.00 -1.00  1.00
E_1g   2.00  1.00 -1.00 -2.00  0.00  0.00  2.00  1.00 -1.00 -2.00  0.00  0.00
E_2g   2.00 -1.00 -1.00  2.00  0.00  0.00  2.00 -1.00 -1.00  2.00  0.00  0.00
A_1u   1.00  1.00  1.00  1.00  1.00  1.00 -1.00 -1.00 -1.00 -1.00 -1.00 -1.00
A_2u   1.00  1.00  1.00  1.00 -1.00 -1.00 -1.00 -1.00 -1.00 -1.00  1.00  1.00
B_1u   1.00 -1.00  1.00 -1.00  1.00 -1.00 -1.00  1.00 -1.00  1.00 -1.00  1.00
B_2u   1.00 -1.00  1.00 -1.00 -1.00  1.00 -1.00  1.00 -1.00  1.00  1.00 -1.00
E_1u   2.00  1.00 -1.00 -2.00  0.00  0.00 -2.00 -1.00  1.00  2.00  0.00  0.00
E_2u   2.00 -1.00 -1.00  2.00  0.00  0.00 -2.00  1.00  1.00 -2.00  0.00  0.00

     the symmetry operations in each class and the name of the first element:

     E        1
          identity                                               
     2C6      5    6
           60 deg rotation - cryst. axis [0,0,1]                 
     2C3      7    8
          120 deg rotation - cryst. axis [0,0,1]                 
     C2       2
          180 deg rotation - cart. axis [0,0,1]                  
     3C2'     4   12   11
          180 deg rotation - cart. axis [1,0,0]                  
     3C2''    3    9   10
          180 deg rotation - cart. axis [0,1,0]                  
     i       13
          inversion                                              
     2S3     17   18
          inv.  60 deg rotation - cryst. axis [0,0,1]            
     2S6     19   20
          inv. 120 deg rotation - cryst. axis [0,0,1]            
     s_h     14
          inv. 180 deg rotation - cart. axis [0,0,1]             
     3s_d    16   24   23
          inv. 180 deg rotation - cart. axis [1,0,0]             
     3s_v    15   21   22
          inv. 180 deg rotation - cart. axis [0,1,0]             

   Cartesian axes

     site n.     atom                  positions (alat units)
         1           C   tau(   1) = (   0.0000000   0.0000000   0.0000000  )
         2           C   tau(   2) = (   0.0000000   0.5773503   0.0000000  )

   Crystallographic axes

     site n.     atom                  positions (cryst. coord.)
         1           C   tau(   1) = (  0.0000000  0.0000000  0.0000000  )
         2           C   tau(   2) = (  0.3333334  0.6666667  0.0000000  )

     number of k points=    24
                       cart. coord. in units 2pi/alat
        k(    1) = (   0.0000000   0.0000000   0.0000000), wk =   0.0102041
        k(    2) = (   0.0000000   0.0824786   0.0000000), wk =   0.0612245
        k(    3) = (   0.0000000   0.1649572   0.0000000), wk =   0.0612245
        k(    4) = (   0.0000000   0.2474358   0.0000000), wk =   0.0612245
        k(    5) = (   0.0000000   0.3299144   0.0000000), wk =   0.0612245
        k(    6) = (   0.0000000   0.4123930   0.0000000), wk =   0.0612245
        k(    7) = (   0.0000000   0.4948717   0.0000000), wk =   0.0612245
        k(    8) = (   0.0000000  -0.5773503   0.0000000), wk =   0.0306122
        k(    9) = (   0.0714286   0.1237179   0.0000000), wk =   0.0612245
        k(   10) = (   0.0714286   0.2061965   0.0000000), wk =   0.1224490
        k(   11) = (   0.0714286   0.2886751   0.0000000), wk =   0.1224490
        k(   12) = (   0.0714286   0.3711537   0.0000000), wk =   0.1224490
        k(   13) = (   0.0714286   0.4536324   0.0000000), wk =   0.1224490
        k(   14) = (   0.0714286   0.5361110   0.0000000), wk =   0.1224490
        k(   15) = (   0.1428571   0.2474358   0.0000000), wk =   0.0612245
        k(   16) = (   0.1428571   0.3299144   0.0000000), wk =   0.1224490
        k(   17) = (   0.1428571   0.4123930   0.0000000), wk =   0.1224490
        k(   18) = (   0.1428571   0.4948717   0.0000000), wk =   0.1224490
        k(   19) = (   0.1428571   0.5773503   0.0000000), wk =   0.0612245
        k(   20) = (   0.2142857   0.3711537   0.0000000), wk =   0.0612245
        k(   21) = (   0.2142857   0.4536324   0.0000000), wk =   0.1224490
        k(   22) = (   0.2142857   0.5361110   0.0000000), wk =   0.1224490
        k(   23) = (   0.2857143   0.4948717   0.0000000), wk =   0.0612245
        k(   24) = (   0.2857143   0.5773503   0.0000000), wk =   0.0612245

                       cryst. coord.
        k(    1) = (   0.0000000   0.0000000   0.0000000), wk =   0.0102041
        k(    2) = (   0.0000000   0.0714286   0.0000000), wk =   0.0612245
        k(    3) = (   0.0000000   0.1428571   0.0000000), wk =   0.0612245
        k(    4) = (   0.0000000   0.2142857   0.0000000), wk =   0.0612245
        k(    5) = (   0.0000000   0.2857143   0.0000000), wk =   0.0612245
        k(    6) = (   0.0000000   0.3571429   0.0000000), wk =   0.0612245
        k(    7) = (   0.0000000   0.4285714   0.0000000), wk =   0.0612245
        k(    8) = (   0.0000000  -0.5000000   0.0000000), wk =   0.0306122
        k(    9) = (   0.0714286   0.0714286   0.0000000), wk =   0.0612245
        k(   10) = (   0.0714286   0.1428571   0.0000000), wk =   0.1224490
        k(   11) = (   0.0714286   0.2142857   0.0000000), wk =   0.1224490
        k(   12) = (   0.0714286   0.2857143   0.0000000), wk =   0.1224490
        k(   13) = (   0.0714286   0.3571429   0.0000000), wk =   0.1224490
        k(   14) = (   0.0714286   0.4285714   0.0000000), wk =   0.1224490
        k(   15) = (   0.1428571   0.1428571   0.0000000), wk =   0.0612245
        k(   16) = (   0.1428571   0.2142857   0.0000000), wk =   0.1224490
        k(   17) = (   0.1428571   0.2857143   0.0000000), wk =   0.1224490
        k(   18) = (   0.1428571   0.3571429   0.0000000), wk =   0.1224490
        k(   19) = (   0.1428571   0.4285714   0.0000000), wk =   0.0612245
        k(   20) = (   0.2142857   0.2142857   0.0000000), wk =   0.0612245
        k(   21) = (   0.2142857   0.2857143   0.0000000), wk =   0.1224490
        k(   22) = (   0.2142857   0.3571429   0.0000000), wk =   0.1224490
        k(   23) = (   0.2857143   0.2857143   0.0000000), wk =   0.0612245
        k(   24) = (   0.2857143   0.3571429   0.0000000), wk =   0.0612245

     Dense  grid:    35435 G-vectors     FFT dimensions: (  30,  30,  90)

     Smooth grid:     8973 G-vectors     FFT dimensions: (  24,  24,  60)

     Dynamical RAM for                 wfc:       0.07 MB

     Dynamical RAM for     wfc (w. buffer):       1.71 MB

     Dynamical RAM for           str. fact:       0.54 MB

     Dynamical RAM for           local pot:       0.00 MB

     Dynamical RAM for          nlocal pot:       0.27 MB

     Dynamical RAM for                qrad:       0.46 MB

     Dynamical RAM for          rho,v,vnew:       3.48 MB

     Dynamical RAM for               rhoin:       1.16 MB

     Dynamical RAM for            rho*nmix:       8.65 MB

     Dynamical RAM for           G-vectors:       2.10 MB

     Dynamical RAM for          h,s,v(r/c):       0.00 MB

     Dynamical RAM for          <psi|beta>:       0.00 MB

     Dynamical RAM for                 psi:       0.14 MB

     Dynamical RAM for                hpsi:       0.14 MB

     Dynamical RAM for                spsi:       0.14 MB

     Dynamical RAM for      wfcinit/wfcrot:       0.27 MB

     Dynamical RAM for           addusdens:      24.33 MB

     Estimated static dynamical RAM per process >      13.88 MB

     Estimated max dynamical RAM per process >      46.86 MB

     Check: negative core charge=   -0.000002

     Initial potential from superposition of free atoms

     starting charge       7.9999, renormalised to       8.0000
     Starting wfcs are    8 randomized atomic wfcs

     total cpu time spent up to now is        0.6 secs

     Self-consistent Calculation

     iteration #  1     ecut=    40.00 Ry     beta= 0.70
     Davidson diagonalization with overlap

---- Real-time Memory Report at c_bands before calling an iterative solver
            69 MiB given to the printing process from OS
             0 MiB allocation reported by mallinfo(arena+hblkhd)
          1203 MiB available memory on the node where the printing process lives
------------------
     ethr =  1.00E-02,  avg # of iterations =  3.3

     total cpu time spent up to now is        1.0 secs

     total energy              =     -23.90775210 Ry
     estimated scf accuracy    <       0.13614682 Ry

     iteration #  2     ecut=    40.00 Ry     beta= 0.70
     Davidson diagonalization with overlap

---- Real-time Memory Report at c_bands before calling an iterative solver
            80 MiB given to the printing process from OS
             0 MiB allocation reported by mallinfo(arena+hblkhd)
          1182 MiB available memory on the node where the printing process lives
------------------
     ethr =  1.70E-03,  avg # of iterations =  2.0

     negative rho (up, down):  1.460E-06 0.000E+00

     total cpu time spent up to now is        1.4 secs

     total energy              =     -23.92173532 Ry
     estimated scf accuracy    <       0.01007237 Ry

     iteration #  3     ecut=    40.00 Ry     beta= 0.70
     Davidson diagonalization with overlap

---- Real-time Memory Report at c_bands before calling an iterative solver
            80 MiB given to the printing process from OS
             0 MiB allocation reported by mallinfo(arena+hblkhd)
          1182 MiB available memory on the node where the printing process lives
------------------
     ethr =  1.26E-04,  avg # of iterations =  5.1

     negative rho (up, down):  1.215E-08 0.000E+00

     total cpu time spent up to now is        1.8 secs

     total energy              =     -23.92862536 Ry
     estimated scf accuracy    <       0.00320972 Ry

     iteration #  4     ecut=    40.00 Ry     beta= 0.70
     Davidson diagonalization with overlap

---- Real-time Memory Report at c_bands before calling an iterative solver
            81 MiB given to the printing process from OS
             0 MiB allocation reported by mallinfo(arena+hblkhd)
          1182 MiB available memory on the node where the printing process lives
------------------
     ethr =  4.01E-05,  avg # of iterations =  3.9

     negative rho (up, down):  1.193E-06 0.000E+00

     total cpu time spent up to now is        2.2 secs

     total energy              =     -23.92942739 Ry
     estimated scf accuracy    <       0.00041037 Ry

     iteration #  5     ecut=    40.00 Ry     beta= 0.70
     Davidson diagonalization with overlap

---- Real-time Memory Report at c_bands before calling an iterative solver
            81 MiB given to the printing process from OS
             0 MiB allocation reported by mallinfo(arena+hblkhd)
          1182 MiB available memory on the node where the printing process lives
------------------
     ethr =  5.13E-06,  avg # of iterations =  3.0

     negative rho (up, down):  1.161E-06 0.000E+00

     total cpu time spent up to now is        2.6 secs

     total energy              =     -23.92948950 Ry
     estimated scf accuracy    <       0.00008097 Ry

     iteration #  6     ecut=    40.00 Ry     beta= 0.70
     Davidson diagonalization with overlap

---- Real-time Memory Report at c_bands before calling an iterative solver
            81 MiB given to the printing process from OS
             0 MiB allocation reported by mallinfo(arena+hblkhd)
          1182 MiB available memory on the node where the printing process lives
------------------
     ethr =  1.01E-06,  avg # of iterations =  4.8

     negative rho (up, down):  1.125E-06 0.000E+00

     total cpu time spent up to now is        3.1 secs

     total energy              =     -23.92954367 Ry
     estimated scf accuracy    <       0.00000132 Ry

     iteration #  7     ecut=    40.00 Ry     beta= 0.70
     Davidson diagonalization with overlap

---- Real-time Memory Report at c_bands before calling an iterative solver
            81 MiB given to the printing process from OS
             0 MiB allocation reported by mallinfo(arena+hblkhd)
          1179 MiB available memory on the node where the printing process lives
------------------
     ethr =  1.65E-08,  avg # of iterations =  9.0

     negative rho (up, down):  1.138E-06 0.000E+00

     total cpu time spent up to now is        3.9 secs

     total energy              =     -23.92954979 Ry
     estimated scf accuracy    <       0.00000003 Ry

     iteration #  8     ecut=    40.00 Ry     beta= 0.70
     Davidson diagonalization with overlap

---- Real-time Memory Report at c_bands before calling an iterative solver
            82 MiB given to the printing process from OS
             0 MiB allocation reported by mallinfo(arena+hblkhd)
          1179 MiB available memory on the node where the printing process lives
------------------
     ethr =  3.87E-10,  avg # of iterations =  7.8

     negative rho (up, down):  1.151E-06 0.000E+00

     total cpu time spent up to now is        4.6 secs

     total energy              =     -23.92954985 Ry
     estimated scf accuracy    <       0.00000008 Ry

     iteration #  9     ecut=    40.00 Ry     beta= 0.70
     Davidson diagonalization with overlap

---- Real-time Memory Report at c_bands before calling an iterative solver
            82 MiB given to the printing process from OS
             0 MiB allocation reported by mallinfo(arena+hblkhd)
          1179 MiB available memory on the node where the printing process lives
------------------
     ethr =  3.87E-10,  avg # of iterations =  4.0

     negative rho (up, down):  1.153E-06 0.000E+00

     total cpu time spent up to now is        4.9 secs

     End of self-consistent calculation

          k = 0.0000 0.0000 0.0000 (  1133 PWs)   bands (ev):

   -18.7146  -7.0486  -2.4186  -2.4186

     occupation numbers 
     1.0000   1.0000   1.0000   1.0000

          k = 0.0000 0.0825 0.0000 (  1118 PWs)   bands (ev):

   -18.5946  -6.9038  -2.8918  -2.6724

     occupation numbers 
     1.0000   1.0000   1.0000   1.0000

          k = 0.0000 0.1650 0.0000 (  1122 PWs)   bands (ev):

   -18.2357  -6.4722  -4.1356  -3.3019

     occupation numbers 
     1.0000   1.0000   1.0000   1.0000

          k = 0.0000 0.2474 0.0000 (  1122 PWs)   bands (ev):

   -17.6406  -5.8164  -5.7632  -4.0633

     occupation numbers 
     1.0000   1.0000   1.0000   1.0000

          k = 0.0000 0.3299 0.0000 (  1114 PWs)   bands (ev):

   -16.8150  -7.6697  -4.7982  -4.7744

     occupation numbers 
     1.0000   1.0000   1.0000   1.0000

          k = 0.0000 0.4124 0.0000 (  1118 PWs)   bands (ev):

   -15.7687  -9.5306  -5.3322  -3.6280

     occupation numbers 
     1.0000   1.0000   1.0000   1.0000

          k = 0.0000 0.4949 0.0000 (  1120 PWs)   bands (ev):

   -14.5267 -11.2890  -5.6836  -2.4098

     occupation numbers 
     1.0000   1.0000   1.0000   1.0000

          k = 0.0000-0.5774 0.0000 (  1120 PWs)   bands (ev):

   -13.4320 -12.5601  -5.8032  -1.7440

     occupation numbers 
     1.0000   1.0000   1.0000   1.0000

          k = 0.0714 0.1237 0.0000 (  1125 PWs)   bands (ev):

   -18.3552  -6.6156  -3.6844  -3.1808

     occupation numbers 
     1.0000   1.0000   1.0000   1.0000

          k = 0.0714 0.2062 0.0000 (  1121 PWs)   bands (ev):

   -17.8782  -6.0449  -5.0395  -3.9856

     occupation numbers 
     1.0000   1.0000   1.0000   1.0000

          k = 0.0714 0.2887 0.0000 (  1120 PWs)   bands (ev):

   -17.1679  -6.7432  -5.2060  -4.7866

     occupation numbers 
     1.0000   1.0000   1.0000   1.0000

          k = 0.0714 0.3712 0.0000 (  1115 PWs)   bands (ev):

   -16.2318  -8.5700  -5.4513  -4.1307

     occupation numbers 
     1.0000   1.0000   1.0000   1.0000

          k = 0.0714 0.4536 0.0000 (  1121 PWs)   bands (ev):

   -15.0849 -10.3685  -5.9190  -2.9030

     occupation numbers 
     1.0000   1.0000   1.0000   1.0000

          k = 0.0714 0.5361 0.0000 (  1113 PWs)   bands (ev):

   -13.7893 -12.0050  -6.1592  -1.8287

     occupation numbers 
     1.0000   1.0000   1.0000   1.0000

          k = 0.1429 0.2474 0.0000 (  1123 PWs)   bands (ev):

   -17.2860  -6.1870  -5.3430  -5.0626

     occupation numbers 
     1.0000   1.0000   1.0000   1.0000

          k = 0.1429 0.3299 0.0000 (  1121 PWs)   bands (ev):

   -16.4652  -7.6637  -6.0190  -4.3873

     occupation numbers 
     1.0000   1.0000   1.0000   1.0000

          k = 0.1429 0.4124 0.0000 (  1124 PWs)   bands (ev):

   -15.4272  -9.3489  -6.6743  -3.2249

     occupation numbers 
     1.0000   1.0000   1.0000   1.0000

          k = 0.1429 0.4949 0.0000 (  1111 PWs)   bands (ev):

   -14.1993 -11.0240  -7.0591  -1.9988

     occupation numbers 
     1.0000   1.0000   1.0000   1.0000

          k = 0.1429 0.5774 0.0000 (  1118 PWs)   bands (ev):

   -13.1283 -12.2524  -7.1868  -1.3044

     occupation numbers 
     1.0000   1.0000   1.0000   1.0000

          k = 0.2143 0.3712 0.0000 (  1123 PWs)   bands (ev):

   -15.5422  -8.6679  -7.2979  -3.3360

     occupation numbers 
     1.0000   1.0000   1.0000   1.0000

          k = 0.2143 0.4536 0.0000 (  1118 PWs)   bands (ev):

   -14.4179 -10.0037  -8.1024  -2.1197

     occupation numbers 
     1.0000   1.0000   1.0000   1.0000

          k = 0.2143 0.5361 0.0000 (  1105 PWs)   bands (ev):

   -13.1620 -11.4616  -8.4369  -0.9872

     occupation numbers 
     1.0000   1.0000   1.0000   1.0000

          k = 0.2857 0.4949 0.0000 (  1101 PWs)   bands (ev):

   -13.2426 -10.7200  -9.2821  -0.8949

     occupation numbers 
     1.0000   1.0000   1.0000   1.0000

          k = 0.2857 0.5774 0.0000 (  1110 PWs)   bands (ev):

   -12.2201 -11.5976  -9.6787  -0.0013

     occupation numbers 
     1.0000   1.0000   1.0000   1.0000

     highest occupied level (ev):    -0.0013

!    total energy              =     -23.92954985 Ry
     estimated scf accuracy    <          1.7E-09 Ry

     The total energy is the sum of the following terms:
     one-electron contribution =     -56.30650057 Ry
     hartree contribution      =      30.32395341 Ry
     xc contribution           =      -8.25765228 Ry
     ewald contribution        =      10.31064959 Ry

     convergence has been achieved in   9 iterations

     Writing all to output data dir ./tmp/graphene/graphene.save/

     init_run     :      0.47s CPU      0.53s WALL (       1 calls)
     electrons    :      4.29s CPU      4.35s WALL (       1 calls)

     Called by init_run:
     wfcinit      :      0.18s CPU      0.18s WALL (       1 calls)
     wfcinit:atom :      0.00s CPU      0.00s WALL (      24 calls)
     wfcinit:wfcr :      0.16s CPU      0.16s WALL (      24 calls)
     potinit      :      0.02s CPU      0.02s WALL (       1 calls)
     hinit0       :      0.24s CPU      0.29s WALL (       1 calls)

     Called by electrons:
     c_bands      :      3.40s CPU      3.45s WALL (       9 calls)
     sum_band     :      0.64s CPU      0.65s WALL (       9 calls)
     v_of_rho     :      0.07s CPU      0.07s WALL (      10 calls)
     v_h          :      0.02s CPU      0.02s WALL (      10 calls)
     v_xc         :      0.05s CPU      0.05s WALL (      10 calls)
     newd         :      0.14s CPU      0.15s WALL (      10 calls)
     mix_rho      :      0.03s CPU      0.03s WALL (       9 calls)

     Called by c_bands:
     init_us_2    :      0.11s CPU      0.12s WALL (     456 calls)
     init_us_2:cp :      0.11s CPU      0.12s WALL (     456 calls)
     cegterg      :      3.27s CPU      3.32s WALL (     216 calls)

     Called by sum_band:
     sum_band:wei :      0.00s CPU      0.00s WALL (       9 calls)
     sum_band:loo :      0.44s CPU      0.45s WALL (       9 calls)
     sum_band:buf :      0.00s CPU      0.00s WALL (     216 calls)
     sum_band:ini :      0.05s CPU      0.05s WALL (     216 calls)
     sum_band:cal :      0.01s CPU      0.01s WALL (     216 calls)
     sum_band:bec :      0.00s CPU      0.00s WALL (     216 calls)
     addusdens    :      0.15s CPU      0.16s WALL (       9 calls)
                                        0.00s GPU  (       9 calls)
     addusd:skk   :      0.00s CPU      0.00s WALL (       9 calls)
                                        0.00s GPU  (       9 calls)

     Called by *egterg:
     cdiaghg      :      0.06s CPU      0.06s WALL (    1247 calls)
     cegterg:over :      0.05s CPU      0.05s WALL (    1031 calls)
     cegterg:upda :      0.04s CPU      0.04s WALL (    1031 calls)
     cegterg:last :      0.06s CPU      0.06s WALL (     804 calls)
     h_psi        :      3.10s CPU      3.15s WALL (    1271 calls)
     s_psi        :      0.04s CPU      0.04s WALL (    1271 calls)
     g_psi        :      0.03s CPU      0.03s WALL (    1031 calls)

     Called by h_psi:
     h_psi:calbec :      0.05s CPU      0.05s WALL (    1271 calls)
     vloc_psi     :      2.99s CPU      3.03s WALL (    1271 calls)
     add_vuspsi   :      0.05s CPU      0.05s WALL (    1271 calls)

     General routines
     calbec       :      0.06s CPU      0.06s WALL (    1487 calls)
     fft          :      0.06s CPU      0.10s WALL (      58 calls)
     ffts         :      0.01s CPU      0.01s WALL (      19 calls)
     fftw         :      2.81s CPU      2.85s WALL (    8546 calls)
     interpolate  :      0.02s CPU      0.02s WALL (      10 calls)

     Parallel routines

     PWSCF        :      4.82s CPU      4.96s WALL


   This run was terminated on:  11:34:59   4Jul2023            

=------------------------------------------------------------------------------=
   JOB DONE.
=------------------------------------------------------------------------------=
