
     Program PWSCF v.7.2 starts on  4Jul2023 at 11:34:30 

     This program is part of the open-source Quantum ESPRESSO suite
     for quantum simulation of materials; please cite
         "P. Giannozzi et al., J. Phys.:Condens. Matter 21 395502 (2009);
         "P. Giannozzi et al., J. Phys.:Condens. Matter 29 465901 (2017);
         "P. Giannozzi et al., J. Chem. Phys. 152 154105 (2020);
          URL http://www.quantum-espresso.org", 
     in publications or presentations arising from this work. More details at
     http://www.quantum-espresso.org/quote

     Parallel version (MPI), running on     1 processors

     MPI processes distributed on     1 nodes
     1228 MiB available memory on the printing compute node when the environment starts

     Waiting for input...
     Reading input from standard input

     Current dimensions of program PWSCF are:
     Max number of different atomic species (ntypx) = 10
     Max number of k-points (npk) =  40000
     Max angular momentum in pseudopotentials (lmaxx) =  4

     Subspace diagonalization in iterative solution of the eigenvalue problem:
     a serial algorithm will be used


     G-vector sticks info
     --------------------
     sticks:   dense  smooth     PW     G-vecs:    dense   smooth      PW
     Sum         595     241     85                35435     8973    1579

     Using Slab Decomposition



     bravais-lattice index     =            4
     lattice parameter (alat)  =       4.6540  a.u.
     unit-cell volume          =     261.8973 (a.u.)^3
     number of atoms/cell      =            2
     number of atomic types    =            1
     number of electrons       =         8.00
     number of Kohn-Sham states=            4
     kinetic-energy cutoff     =      40.0000  Ry
     charge density cutoff     =     400.0000  Ry
     scf convergence threshold =      1.0E-08
     mixing beta               =       0.7000
     number of iterations used =            8  plain     mixing
     Exchange-correlation= LDA
                           (   1   1   0   0   0   0   0)

     celldm(1)=   4.654000  celldm(2)=   0.000000  celldm(3)=   3.000000
     celldm(4)=   0.000000  celldm(5)=   0.000000  celldm(6)=   0.000000

     crystal axes: (cart. coord. in units of alat)
               a(1) = (   1.000000   0.000000   0.000000 )  
               a(2) = (  -0.500000   0.866025   0.000000 )  
               a(3) = (   0.000000   0.000000   3.000000 )  

     reciprocal axes: (cart. coord. in units 2 pi/alat)
               b(1) = (  1.000000  0.577350 -0.000000 )  
               b(2) = (  0.000000  1.154701  0.000000 )  
               b(3) = (  0.000000 -0.000000  0.333333 )  


     PseudoPot. # 1 for C  read from file:
     ./C.pz-n-rrkjus_psl.0.1.UPF
     MD5 check sum: a3cecbabebb5b3a1aff122f23eb09bb0
     Pseudo is Ultrasoft + core correction, Zval =  4.0
     Generated using "atomic" code by A. Dal Corso  v.5.0.2 svn rev. 9415
     Using radial grid of 1073 points,  4 beta functions with: 
                l(1) =   0
                l(2) =   0
                l(3) =   1
                l(4) =   1
     Q(r) pseudized with 0 coefficients 


     atomic species   valence    mass     pseudopotential
        C              4.00    12.01070     C ( 1.00)

     24 Sym. Ops., with inversion, found (12 have fractional translation)


                                    s                        frac. trans.

      isym =  1     identity                                     

 cryst.   s( 1) = (     1          0          0      )
                  (     0          1          0      )
                  (     0          0          1      )

 cart.    s( 1) = (  1.0000000  0.0000000  0.0000000 )
                  (  0.0000000  1.0000000  0.0000000 )
                  (  0.0000000  0.0000000  1.0000000 )


      isym =  2     180 deg rotation - cart. axis [0,0,1]        

 cryst.   s( 2) = (    -1          0          0      )    f =( -0.3333334 )
                  (     0         -1          0      )       (  0.3333333 )
                  (     0          0          1      )       (  0.0000000 )

 cart.    s( 2) = ( -1.0000000  0.0000000  0.0000000 )    f =( -0.5000000 )
                  (  0.0000000 -1.0000000  0.0000000 )       (  0.2886751 )
                  (  0.0000000  0.0000000  1.0000000 )       (  0.0000000 )


      isym =  3     180 deg rotation - cart. axis [0,1,0]        

 cryst.   s( 3) = (    -1          0          0      )
                  (     1          1          0      )
                  (     0          0         -1      )

 cart.    s( 3) = ( -1.0000000  0.0000000  0.0000000 )
                  (  0.0000000  1.0000000  0.0000000 )
                  (  0.0000000  0.0000000 -1.0000000 )


      isym =  4     180 deg rotation - cart. axis [1,0,0]        

 cryst.   s( 4) = (     1          0          0      )    f =( -0.3333334 )
                  (    -1         -1          0      )       (  0.3333333 )
                  (     0          0         -1      )       (  0.0000000 )

 cart.    s( 4) = (  1.0000000  0.0000000  0.0000000 )    f =( -0.5000000 )
                  (  0.0000000 -1.0000000  0.0000000 )       (  0.2886751 )
                  (  0.0000000  0.0000000 -1.0000000 )       (  0.0000000 )


      isym =  5      60 deg rotation - cryst. axis [0,0,1]       

 cryst.   s( 5) = (     1          1          0      )    f =( -0.3333334 )
                  (    -1          0          0      )       (  0.3333334 )
                  (     0          0          1      )       (  0.0000000 )

 cart.    s( 5) = (  0.5000000 -0.8660254  0.0000000 )    f =( -0.5000000 )
                  (  0.8660254  0.5000000  0.0000000 )       (  0.2886751 )
                  (  0.0000000  0.0000000  1.0000000 )       (  0.0000000 )


      isym =  6      60 deg rotation - cryst. axis [0,0,-1]      

 cryst.   s( 6) = (     0         -1          0      )    f =( -0.3333333 )
                  (     1          1          0      )       (  0.3333334 )
                  (     0          0          1      )       (  0.0000000 )

 cart.    s( 6) = (  0.5000000  0.8660254  0.0000000 )    f =( -0.5000000 )
                  ( -0.8660254  0.5000000  0.0000000 )       (  0.2886751 )
                  (  0.0000000  0.0000000  1.0000000 )       (  0.0000000 )


      isym =  7     120 deg rotation - cryst. axis [0,0,1]       

 cryst.   s( 7) = (     0          1          0      )
                  (    -1         -1          0      )
                  (     0          0          1      )

 cart.    s( 7) = ( -0.5000000 -0.8660254  0.0000000 )
                  (  0.8660254 -0.5000000  0.0000000 )
                  (  0.0000000  0.0000000  1.0000000 )


      isym =  8     120 deg rotation - cryst. axis [0,0,-1]      

 cryst.   s( 8) = (    -1         -1          0      )
                  (     1          0          0      )
                  (     0          0          1      )

 cart.    s( 8) = ( -0.5000000  0.8660254  0.0000000 )
                  ( -0.8660254 -0.5000000  0.0000000 )
                  (  0.0000000  0.0000000  1.0000000 )


      isym =  9     180 deg rotation - cryst. axis [1,-1,0]      

 cryst.   s( 9) = (     0         -1          0      )
                  (    -1          0          0      )
                  (     0          0         -1      )

 cart.    s( 9) = (  0.5000000 -0.8660254  0.0000000 )
                  ( -0.8660254 -0.5000000  0.0000000 )
                  (  0.0000000  0.0000000 -1.0000000 )


      isym = 10     180 deg rotation - cryst. axis [2,1,0]       

 cryst.   s(10) = (     1          1          0      )
                  (     0         -1          0      )
                  (     0          0         -1      )

 cart.    s(10) = (  0.5000000  0.8660254  0.0000000 )
                  (  0.8660254 -0.5000000  0.0000000 )
                  (  0.0000000  0.0000000 -1.0000000 )


      isym = 11     180 deg rotation - cryst. axis [0,1,0]       

 cryst.   s(11) = (    -1         -1          0      )    f =( -0.3333334 )
                  (     0          1          0      )       (  0.3333334 )
                  (     0          0         -1      )       (  0.0000000 )

 cart.    s(11) = ( -0.5000000 -0.8660254  0.0000000 )    f =( -0.5000000 )
                  ( -0.8660254  0.5000000  0.0000000 )       (  0.2886751 )
                  (  0.0000000  0.0000000 -1.0000000 )       (  0.0000000 )


      isym = 12     180 deg rotation - cryst. axis [1,1,0]       

 cryst.   s(12) = (     0          1          0      )    f =( -0.3333333 )
                  (     1          0          0      )       (  0.3333334 )
                  (     0          0         -1      )       (  0.0000000 )

 cart.    s(12) = ( -0.5000000  0.8660254  0.0000000 )    f =( -0.5000000 )
                  (  0.8660254  0.5000000  0.0000000 )       (  0.2886751 )
                  (  0.0000000  0.0000000 -1.0000000 )       (  0.0000000 )


      isym = 13     inversion                                    

 cryst.   s(13) = (    -1          0          0      )    f =( -0.3333334 )
                  (     0         -1          0      )       (  0.3333333 )
                  (     0          0         -1      )       (  0.0000000 )

 cart.    s(13) = ( -1.0000000  0.0000000  0.0000000 )    f =( -0.5000000 )
                  (  0.0000000 -1.0000000  0.0000000 )       (  0.2886751 )
                  (  0.0000000  0.0000000 -1.0000000 )       (  0.0000000 )


      isym = 14     inv. 180 deg rotation - cart. axis [0,0,1]   

 cryst.   s(14) = (     1          0          0      )
                  (     0          1          0      )
                  (     0          0         -1      )

 cart.    s(14) = (  1.0000000  0.0000000  0.0000000 )
                  (  0.0000000  1.0000000  0.0000000 )
                  (  0.0000000  0.0000000 -1.0000000 )


      isym = 15     inv. 180 deg rotation - cart. axis [0,1,0]   

 cryst.   s(15) = (     1          0          0      )    f =( -0.3333334 )
                  (    -1         -1          0      )       (  0.3333333 )
                  (     0          0          1      )       (  0.0000000 )

 cart.    s(15) = (  1.0000000  0.0000000  0.0000000 )    f =( -0.5000000 )
                  (  0.0000000 -1.0000000  0.0000000 )       (  0.2886751 )
                  (  0.0000000  0.0000000  1.0000000 )       (  0.0000000 )


      isym = 16     inv. 180 deg rotation - cart. axis [1,0,0]   

 cryst.   s(16) = (    -1          0          0      )
                  (     1          1          0      )
                  (     0          0          1      )

 cart.    s(16) = ( -1.0000000  0.0000000  0.0000000 )
                  (  0.0000000  1.0000000  0.0000000 )
                  (  0.0000000  0.0000000  1.0000000 )


      isym = 17     inv.  60 deg rotation - cryst. axis [0,0,1]  

 cryst.   s(17) = (    -1         -1          0      )
                  (     1          0          0      )
                  (     0          0         -1      )

 cart.    s(17) = ( -0.5000000  0.8660254  0.0000000 )
                  ( -0.8660254 -0.5000000  0.0000000 )
                  (  0.0000000  0.0000000 -1.0000000 )


      isym = 18     inv.  60 deg rotation - cryst. axis [0,0,-1] 

 cryst.   s(18) = (     0          1          0      )
                  (    -1         -1          0      )
                  (     0          0         -1      )

 cart.    s(18) = ( -0.5000000 -0.8660254  0.0000000 )
                  (  0.8660254 -0.5000000  0.0000000 )
                  (  0.0000000  0.0000000 -1.0000000 )


      isym = 19     inv. 120 deg rotation - cryst. axis [0,0,1]  

 cryst.   s(19) = (     0         -1          0      )    f =( -0.3333333 )
                  (     1          1          0      )       (  0.3333334 )
                  (     0          0         -1      )       (  0.0000000 )

 cart.    s(19) = (  0.5000000  0.8660254  0.0000000 )    f =( -0.5000000 )
                  ( -0.8660254  0.5000000  0.0000000 )       (  0.2886751 )
                  (  0.0000000  0.0000000 -1.0000000 )       (  0.0000000 )


      isym = 20     inv. 120 deg rotation - cryst. axis [0,0,-1] 

 cryst.   s(20) = (     1          1          0      )    f =( -0.3333334 )
                  (    -1          0          0      )       (  0.3333334 )
                  (     0          0         -1      )       (  0.0000000 )

 cart.    s(20) = (  0.5000000 -0.8660254  0.0000000 )    f =( -0.5000000 )
                  (  0.8660254  0.5000000  0.0000000 )       (  0.2886751 )
                  (  0.0000000  0.0000000 -1.0000000 )       (  0.0000000 )


      isym = 21     inv. 180 deg rotation - cryst. axis [1,-1,0] 

 cryst.   s(21) = (     0          1          0      )    f =( -0.3333333 )
                  (     1          0          0      )       (  0.3333334 )
                  (     0          0          1      )       (  0.0000000 )

 cart.    s(21) = ( -0.5000000  0.8660254  0.0000000 )    f =( -0.5000000 )
                  (  0.8660254  0.5000000  0.0000000 )       (  0.2886751 )
                  (  0.0000000  0.0000000  1.0000000 )       (  0.0000000 )


      isym = 22     inv. 180 deg rotation - cryst. axis [2,1,0]  

 cryst.   s(22) = (    -1         -1          0      )    f =( -0.3333334 )
                  (     0          1          0      )       (  0.3333334 )
                  (     0          0          1      )       (  0.0000000 )

 cart.    s(22) = ( -0.5000000 -0.8660254  0.0000000 )    f =( -0.5000000 )
                  ( -0.8660254  0.5000000  0.0000000 )       (  0.2886751 )
                  (  0.0000000  0.0000000  1.0000000 )       (  0.0000000 )


      isym = 23     inv. 180 deg rotation - cryst. axis [0,1,0]  

 cryst.   s(23) = (     1          1          0      )
                  (     0         -1          0      )
                  (     0          0          1      )

 cart.    s(23) = (  0.5000000  0.8660254  0.0000000 )
                  (  0.8660254 -0.5000000  0.0000000 )
                  (  0.0000000  0.0000000  1.0000000 )


      isym = 24     inv. 180 deg rotation - cryst. axis [1,1,0]  

 cryst.   s(24) = (     0         -1          0      )
                  (    -1          0          0      )
                  (     0          0          1      )

 cart.    s(24) = (  0.5000000 -0.8660254  0.0000000 )
                  ( -0.8660254 -0.5000000  0.0000000 )
                  (  0.0000000  0.0000000  1.0000000 )


     point group D_6h(6/mmm)
     there are 12 classes
     the character table:

       E     2C6   2C3   C2    3C2'  3C2'' i     2S3   2S6   s_h   3s_d  3s_v 
A_1g   1.00  1.00  1.00  1.00  1.00  1.00  1.00  1.00  1.00  1.00  1.00  1.00
A_2g   1.00  1.00  1.00  1.00 -1.00 -1.00  1.00  1.00  1.00  1.00 -1.00 -1.00
B_1g   1.00 -1.00  1.00 -1.00  1.00 -1.00  1.00 -1.00  1.00 -1.00  1.00 -1.00
B_2g   1.00 -1.00  1.00 -1.00 -1.00  1.00  1.00 -1.00  1.00 -1.00 -1.00  1.00
E_1g   2.00  1.00 -1.00 -2.00  0.00  0.00  2.00  1.00 -1.00 -2.00  0.00  0.00
E_2g   2.00 -1.00 -1.00  2.00  0.00  0.00  2.00 -1.00 -1.00  2.00  0.00  0.00
A_1u   1.00  1.00  1.00  1.00  1.00  1.00 -1.00 -1.00 -1.00 -1.00 -1.00 -1.00
A_2u   1.00  1.00  1.00  1.00 -1.00 -1.00 -1.00 -1.00 -1.00 -1.00  1.00  1.00
B_1u   1.00 -1.00  1.00 -1.00  1.00 -1.00 -1.00  1.00 -1.00  1.00 -1.00  1.00
B_2u   1.00 -1.00  1.00 -1.00 -1.00  1.00 -1.00  1.00 -1.00  1.00  1.00 -1.00
E_1u   2.00  1.00 -1.00 -2.00  0.00  0.00 -2.00 -1.00  1.00  2.00  0.00  0.00
E_2u   2.00 -1.00 -1.00  2.00  0.00  0.00 -2.00  1.00  1.00 -2.00  0.00  0.00

     the symmetry operations in each class and the name of the first element:

     E        1
          identity                                               
     2C6      5    6
           60 deg rotation - cryst. axis [0,0,1]                 
     2C3      7    8
          120 deg rotation - cryst. axis [0,0,1]                 
     C2       2
          180 deg rotation - cart. axis [0,0,1]                  
     3C2'     4   12   11
          180 deg rotation - cart. axis [1,0,0]                  
     3C2''    3    9   10
          180 deg rotation - cart. axis [0,1,0]                  
     i       13
          inversion                                              
     2S3     17   18
          inv.  60 deg rotation - cryst. axis [0,0,1]            
     2S6     19   20
          inv. 120 deg rotation - cryst. axis [0,0,1]            
     s_h     14
          inv. 180 deg rotation - cart. axis [0,0,1]             
     3s_d    16   24   23
          inv. 180 deg rotation - cart. axis [1,0,0]             
     3s_v    15   21   22
          inv. 180 deg rotation - cart. axis [0,1,0]             

   Cartesian axes

     site n.     atom                  positions (alat units)
         1           C   tau(   1) = (   0.0000000   0.0000000   0.0000000  )
         2           C   tau(   2) = (   0.0000000   0.5773503   0.0000000  )

   Crystallographic axes

     site n.     atom                  positions (cryst. coord.)
         1           C   tau(   1) = (  0.0000000  0.0000000  0.0000000  )
         2           C   tau(   2) = (  0.3333334  0.6666667  0.0000000  )

     number of k points=    14
                       cart. coord. in units 2pi/alat
        k(    1) = (   0.0000000   0.0000000   0.0000000), wk =   0.0200000
        k(    2) = (   0.0000000   0.1154701   0.0000000), wk =   0.1200000
        k(    3) = (   0.0000000   0.2309401   0.0000000), wk =   0.1200000
        k(    4) = (   0.0000000   0.3464102   0.0000000), wk =   0.1200000
        k(    5) = (   0.0000000   0.4618802   0.0000000), wk =   0.1200000
        k(    6) = (   0.0000000  -0.5773503   0.0000000), wk =   0.0600000
        k(    7) = (   0.1000000   0.1732051   0.0000000), wk =   0.1200000
        k(    8) = (   0.1000000   0.2886751   0.0000000), wk =   0.2400000
        k(    9) = (   0.1000000   0.4041452   0.0000000), wk =   0.2400000
        k(   10) = (   0.1000000   0.5196152   0.0000000), wk =   0.2400000
        k(   11) = (   0.2000000   0.3464102   0.0000000), wk =   0.1200000
        k(   12) = (   0.2000000   0.4618802   0.0000000), wk =   0.2400000
        k(   13) = (   0.2000000   0.5773503   0.0000000), wk =   0.1200000
        k(   14) = (   0.3000000   0.5196152   0.0000000), wk =   0.1200000

                       cryst. coord.
        k(    1) = (   0.0000000   0.0000000   0.0000000), wk =   0.0200000
        k(    2) = (   0.0000000   0.1000000   0.0000000), wk =   0.1200000
        k(    3) = (   0.0000000   0.2000000   0.0000000), wk =   0.1200000
        k(    4) = (   0.0000000   0.3000000   0.0000000), wk =   0.1200000
        k(    5) = (   0.0000000   0.4000000   0.0000000), wk =   0.1200000
        k(    6) = (   0.0000000  -0.5000000   0.0000000), wk =   0.0600000
        k(    7) = (   0.1000000   0.1000000   0.0000000), wk =   0.1200000
        k(    8) = (   0.1000000   0.2000000   0.0000000), wk =   0.2400000
        k(    9) = (   0.1000000   0.3000000   0.0000000), wk =   0.2400000
        k(   10) = (   0.1000000   0.4000000   0.0000000), wk =   0.2400000
        k(   11) = (   0.2000000   0.2000000   0.0000000), wk =   0.1200000
        k(   12) = (   0.2000000   0.3000000   0.0000000), wk =   0.2400000
        k(   13) = (   0.2000000   0.4000000   0.0000000), wk =   0.1200000
        k(   14) = (   0.3000000   0.3000000   0.0000000), wk =   0.1200000

     Dense  grid:    35435 G-vectors     FFT dimensions: (  30,  30,  90)

     Smooth grid:     8973 G-vectors     FFT dimensions: (  24,  24,  60)

     Dynamical RAM for                 wfc:       0.07 MB

     Dynamical RAM for     wfc (w. buffer):       1.02 MB

     Dynamical RAM for           str. fact:       0.54 MB

     Dynamical RAM for           local pot:       0.00 MB

     Dynamical RAM for          nlocal pot:       0.27 MB

     Dynamical RAM for                qrad:       0.46 MB

     Dynamical RAM for          rho,v,vnew:       3.48 MB

     Dynamical RAM for               rhoin:       1.16 MB

     Dynamical RAM for            rho*nmix:       8.65 MB

     Dynamical RAM for           G-vectors:       2.10 MB

     Dynamical RAM for          h,s,v(r/c):       0.00 MB

     Dynamical RAM for          <psi|beta>:       0.00 MB

     Dynamical RAM for                 psi:       0.14 MB

     Dynamical RAM for                hpsi:       0.14 MB

     Dynamical RAM for                spsi:       0.14 MB

     Dynamical RAM for      wfcinit/wfcrot:       0.27 MB

     Dynamical RAM for           addusdens:      24.33 MB

     Estimated static dynamical RAM per process >      13.20 MB

     Estimated max dynamical RAM per process >      46.18 MB

     Check: negative core charge=   -0.000002

     Initial potential from superposition of free atoms

     starting charge       7.9999, renormalised to       8.0000
     Starting wfcs are    8 randomized atomic wfcs

     total cpu time spent up to now is        0.5 secs

     Self-consistent Calculation

     iteration #  1     ecut=    40.00 Ry     beta= 0.70
     Davidson diagonalization with overlap

---- Real-time Memory Report at c_bands before calling an iterative solver
            69 MiB given to the printing process from OS
             0 MiB allocation reported by mallinfo(arena+hblkhd)
          1220 MiB available memory on the node where the printing process lives
------------------
     ethr =  1.00E-02,  avg # of iterations =  3.4

     total cpu time spent up to now is        0.7 secs

     total energy              =     -23.90804863 Ry
     estimated scf accuracy    <       0.13636444 Ry

     iteration #  2     ecut=    40.00 Ry     beta= 0.70
     Davidson diagonalization with overlap

---- Real-time Memory Report at c_bands before calling an iterative solver
            79 MiB given to the printing process from OS
             0 MiB allocation reported by mallinfo(arena+hblkhd)
          1207 MiB available memory on the node where the printing process lives
------------------
     ethr =  1.70E-03,  avg # of iterations =  2.0

     negative rho (up, down):  1.315E-06 0.000E+00

     total cpu time spent up to now is        1.0 secs

     total energy              =     -23.92219198 Ry
     estimated scf accuracy    <       0.00983878 Ry

     iteration #  3     ecut=    40.00 Ry     beta= 0.70
     Davidson diagonalization with overlap

---- Real-time Memory Report at c_bands before calling an iterative solver
            80 MiB given to the printing process from OS
             0 MiB allocation reported by mallinfo(arena+hblkhd)
          1207 MiB available memory on the node where the printing process lives
------------------
     ethr =  1.23E-04,  avg # of iterations =  4.9

     negative rho (up, down):  1.353E-08 0.000E+00

     total cpu time spent up to now is        1.3 secs

     total energy              =     -23.92906382 Ry
     estimated scf accuracy    <       0.00294523 Ry

     iteration #  4     ecut=    40.00 Ry     beta= 0.70
     Davidson diagonalization with overlap

---- Real-time Memory Report at c_bands before calling an iterative solver
            80 MiB given to the printing process from OS
             0 MiB allocation reported by mallinfo(arena+hblkhd)
          1207 MiB available memory on the node where the printing process lives
------------------
     ethr =  3.68E-05,  avg # of iterations =  4.4

     negative rho (up, down):  1.208E-06 0.000E+00

     total cpu time spent up to now is        1.5 secs

     total energy              =     -23.92967063 Ry
     estimated scf accuracy    <       0.00117222 Ry

     iteration #  5     ecut=    40.00 Ry     beta= 0.70
     Davidson diagonalization with overlap

---- Real-time Memory Report at c_bands before calling an iterative solver
            80 MiB given to the printing process from OS
             0 MiB allocation reported by mallinfo(arena+hblkhd)
          1207 MiB available memory on the node where the printing process lives
------------------
     ethr =  1.47E-05,  avg # of iterations =  2.0

     negative rho (up, down):  1.163E-06 0.000E+00

     total cpu time spent up to now is        1.8 secs

     total energy              =     -23.92970824 Ry
     estimated scf accuracy    <       0.00011469 Ry

     iteration #  6     ecut=    40.00 Ry     beta= 0.70
     Davidson diagonalization with overlap

---- Real-time Memory Report at c_bands before calling an iterative solver
            81 MiB given to the printing process from OS
             0 MiB allocation reported by mallinfo(arena+hblkhd)
          1193 MiB available memory on the node where the printing process lives
------------------
     ethr =  1.43E-06,  avg # of iterations =  5.6

     negative rho (up, down):  1.132E-06 0.000E+00

     total cpu time spent up to now is        2.2 secs

     total energy              =     -23.92983790 Ry
     estimated scf accuracy    <       0.00001012 Ry

     iteration #  7     ecut=    40.00 Ry     beta= 0.70
     Davidson diagonalization with overlap

---- Real-time Memory Report at c_bands before calling an iterative solver
            81 MiB given to the printing process from OS
             0 MiB allocation reported by mallinfo(arena+hblkhd)
          1180 MiB available memory on the node where the printing process lives
------------------
     ethr =  1.26E-07,  avg # of iterations =  5.7

     negative rho (up, down):  1.117E-06 0.000E+00

     total cpu time spent up to now is        2.5 secs

     total energy              =     -23.92984894 Ry
     estimated scf accuracy    <       0.00001092 Ry

     iteration #  8     ecut=    40.00 Ry     beta= 0.70
     Davidson diagonalization with overlap

---- Real-time Memory Report at c_bands before calling an iterative solver
            81 MiB given to the printing process from OS
             0 MiB allocation reported by mallinfo(arena+hblkhd)
          1178 MiB available memory on the node where the printing process lives
------------------
     ethr =  1.26E-07,  avg # of iterations =  1.1

     negative rho (up, down):  1.145E-06 0.000E+00

     total cpu time spent up to now is        2.8 secs

     total energy              =     -23.92984103 Ry
     estimated scf accuracy    <       0.00001237 Ry

     iteration #  9     ecut=    40.00 Ry     beta= 0.70
     Davidson diagonalization with overlap

---- Real-time Memory Report at c_bands before calling an iterative solver
            81 MiB given to the printing process from OS
             0 MiB allocation reported by mallinfo(arena+hblkhd)
          1175 MiB available memory on the node where the printing process lives
------------------
     ethr =  1.26E-07,  avg # of iterations =  3.3

     negative rho (up, down):  1.147E-06 0.000E+00

     total cpu time spent up to now is        3.1 secs

     total energy              =     -23.92984280 Ry
     estimated scf accuracy    <       0.00000019 Ry

     iteration # 10     ecut=    40.00 Ry     beta= 0.70
     Davidson diagonalization with overlap

---- Real-time Memory Report at c_bands before calling an iterative solver
            82 MiB given to the printing process from OS
             0 MiB allocation reported by mallinfo(arena+hblkhd)
          1173 MiB available memory on the node where the printing process lives
------------------
     ethr =  2.39E-09,  avg # of iterations =  7.9

     negative rho (up, down):  1.146E-06 0.000E+00

     total cpu time spent up to now is        3.5 secs

     total energy              =     -23.92984371 Ry
     estimated scf accuracy    <       0.00000037 Ry

     iteration # 11     ecut=    40.00 Ry     beta= 0.70
     Davidson diagonalization with overlap

---- Real-time Memory Report at c_bands before calling an iterative solver
            82 MiB given to the printing process from OS
             0 MiB allocation reported by mallinfo(arena+hblkhd)
          1173 MiB available memory on the node where the printing process lives
------------------
     ethr =  2.39E-09,  avg # of iterations =  1.1

     negative rho (up, down):  1.143E-06 0.000E+00

     total cpu time spent up to now is        3.7 secs

     total energy              =     -23.92984383 Ry
     estimated scf accuracy    <       0.00000041 Ry

     iteration # 12     ecut=    40.00 Ry     beta= 0.70
     Davidson diagonalization with overlap

---- Real-time Memory Report at c_bands before calling an iterative solver
            82 MiB given to the printing process from OS
             0 MiB allocation reported by mallinfo(arena+hblkhd)
          1173 MiB available memory on the node where the printing process lives
------------------
     ethr =  2.39E-09,  avg # of iterations =  1.0

     negative rho (up, down):  1.148E-06 0.000E+00

     total cpu time spent up to now is        3.9 secs

     total energy              =     -23.92984344 Ry
     estimated scf accuracy    <       0.00000063 Ry

     iteration # 13     ecut=    40.00 Ry     beta= 0.70
     Davidson diagonalization with overlap

---- Real-time Memory Report at c_bands before calling an iterative solver
            82 MiB given to the printing process from OS
             0 MiB allocation reported by mallinfo(arena+hblkhd)
          1173 MiB available memory on the node where the printing process lives
------------------
     ethr =  2.39E-09,  avg # of iterations =  4.9

     negative rho (up, down):  1.152E-06 0.000E+00

     total cpu time spent up to now is        4.2 secs

     total energy              =     -23.92984368 Ry
     estimated scf accuracy    <       0.00000004 Ry

     iteration # 14     ecut=    40.00 Ry     beta= 0.70
     Davidson diagonalization with overlap

---- Real-time Memory Report at c_bands before calling an iterative solver
            82 MiB given to the printing process from OS
             0 MiB allocation reported by mallinfo(arena+hblkhd)
          1173 MiB available memory on the node where the printing process lives
------------------
     ethr =  4.77E-10,  avg # of iterations =  5.8

     negative rho (up, down):  1.154E-06 0.000E+00

     total cpu time spent up to now is        4.5 secs

     total energy              =     -23.92984377 Ry
     estimated scf accuracy    <       0.00000045 Ry

     iteration # 15     ecut=    40.00 Ry     beta= 0.70
     Davidson diagonalization with overlap

---- Real-time Memory Report at c_bands before calling an iterative solver
            82 MiB given to the printing process from OS
             0 MiB allocation reported by mallinfo(arena+hblkhd)
          1173 MiB available memory on the node where the printing process lives
------------------
     ethr =  4.77E-10,  avg # of iterations =  1.0

     negative rho (up, down):  1.153E-06 0.000E+00

     total cpu time spent up to now is        4.7 secs

     total energy              =     -23.92984354 Ry
     estimated scf accuracy    <       0.00000046 Ry

     iteration # 16     ecut=    40.00 Ry     beta= 0.70
     Davidson diagonalization with overlap

---- Real-time Memory Report at c_bands before calling an iterative solver
            82 MiB given to the printing process from OS
             0 MiB allocation reported by mallinfo(arena+hblkhd)
          1173 MiB available memory on the node where the printing process lives
------------------
     ethr =  4.77E-10,  avg # of iterations =  5.1

     negative rho (up, down):  1.153E-06 0.000E+00

     total cpu time spent up to now is        5.0 secs

     total energy              =     -23.92984357 Ry
     estimated scf accuracy    <       0.00000007 Ry

     iteration # 17     ecut=    40.00 Ry     beta= 0.70
     Davidson diagonalization with overlap

---- Real-time Memory Report at c_bands before calling an iterative solver
            82 MiB given to the printing process from OS
             0 MiB allocation reported by mallinfo(arena+hblkhd)
          1173 MiB available memory on the node where the printing process lives
------------------
     ethr =  4.77E-10,  avg # of iterations =  1.0

     negative rho (up, down):  1.154E-06 0.000E+00

     total cpu time spent up to now is        5.2 secs

     total energy              =     -23.92984353 Ry
     estimated scf accuracy    <       0.00000006 Ry

     iteration # 18     ecut=    40.00 Ry     beta= 0.70
     Davidson diagonalization with overlap

---- Real-time Memory Report at c_bands before calling an iterative solver
            82 MiB given to the printing process from OS
             0 MiB allocation reported by mallinfo(arena+hblkhd)
          1173 MiB available memory on the node where the printing process lives
------------------
     ethr =  4.77E-10,  avg # of iterations =  5.9

     negative rho (up, down):  1.155E-06 0.000E+00

     total cpu time spent up to now is        5.5 secs

     total energy              =     -23.92984354 Ry
     estimated scf accuracy    <       0.00000007 Ry

     iteration # 19     ecut=    40.00 Ry     beta= 0.70
     Davidson diagonalization with overlap

---- Real-time Memory Report at c_bands before calling an iterative solver
            82 MiB given to the printing process from OS
             0 MiB allocation reported by mallinfo(arena+hblkhd)
          1173 MiB available memory on the node where the printing process lives
------------------
     ethr =  4.77E-10,  avg # of iterations =  2.0

     negative rho (up, down):  1.155E-06 0.000E+00

     total cpu time spent up to now is        5.7 secs

     total energy              =     -23.92984354 Ry
     estimated scf accuracy    <       0.00000001 Ry

     iteration # 20     ecut=    40.00 Ry     beta= 0.70
     Davidson diagonalization with overlap

---- Real-time Memory Report at c_bands before calling an iterative solver
            82 MiB given to the printing process from OS
             0 MiB allocation reported by mallinfo(arena+hblkhd)
          1173 MiB available memory on the node where the printing process lives
------------------
     ethr =  1.31E-10,  avg # of iterations =  4.9

     negative rho (up, down):  1.154E-06 0.000E+00

     total cpu time spent up to now is        6.0 secs

     End of self-consistent calculation

          k = 0.0000 0.0000 0.0000 (  1133 PWs)   bands (ev):

   -18.7150  -7.0489  -2.4191  -2.4191

     occupation numbers 
     1.0000   1.0000   1.0000   1.0000

          k = 0.0000 0.1155 0.0000 (  1118 PWs)   bands (ev):

   -18.4800  -6.7656  -3.3160  -2.8936

     occupation numbers 
     1.0000   1.0000   1.0000   1.0000

          k = 0.0000 0.2309 0.0000 (  1128 PWs)   bands (ev):

   -17.7787  -5.9268  -5.4600  -3.9110

     occupation numbers 
     1.0000   1.0000   1.0000   1.0000

          k = 0.0000 0.3464 0.0000 (  1110 PWs)   bands (ev):

   -16.6233  -8.0457  -4.9009  -4.5783

     occupation numbers 
     1.0000   1.0000   1.0000   1.0000

          k = 0.0000 0.4619 0.0000 (  1120 PWs)   bands (ev):

   -15.0440 -10.6052  -5.5704  -2.8821

     occupation numbers 
     1.0000   1.0000   1.0000   1.0000

          k = 0.0000-0.5774 0.0000 (  1120 PWs)   bands (ev):

   -13.4324 -12.5606  -5.8037  -1.7444

     occupation numbers 
     1.0000   1.0000   1.0000   1.0000

          k = 0.1000 0.1732 0.0000 (  1123 PWs)   bands (ev):

   -18.0119  -6.2042  -4.6362  -3.8430

     occupation numbers 
     1.0000   1.0000   1.0000   1.0000

          k = 0.1000 0.2887 0.0000 (  1122 PWs)   bands (ev):

   -17.0836  -6.7665  -5.1063  -5.0852

     occupation numbers 
     1.0000   1.0000   1.0000   1.0000

          k = 0.1000 0.4041 0.0000 (  1116 PWs)   bands (ev):

   -15.7151  -9.2565  -5.9981  -3.5525

     occupation numbers 
     1.0000   1.0000   1.0000   1.0000

          k = 0.1000 0.5196 0.0000 (  1112 PWs)   bands (ev):

   -13.9722 -11.6363  -6.4727  -1.8953

     occupation numbers 
     1.0000   1.0000   1.0000   1.0000

          k = 0.2000 0.3464 0.0000 (  1127 PWs)   bands (ev):

   -15.9420  -8.1998  -6.8549  -3.7867

     occupation numbers 
     1.0000   1.0000   1.0000   1.0000

          k = 0.2000 0.4619 0.0000 (  1116 PWs)   bands (ev):

   -14.3918 -10.1872  -7.9146  -2.1043

     occupation numbers 
     1.0000   1.0000   1.0000   1.0000

          k = 0.2000 0.5774 0.0000 (  1104 PWs)   bands (ev):

   -12.8376 -11.9796  -8.2108  -0.8851

     occupation numbers 
     1.0000   1.0000   1.0000   1.0000

          k = 0.3000 0.5196 0.0000 (  1111 PWs)   bands (ev):

   -12.7540 -11.0665  -9.5941  -0.4117

     occupation numbers 
     1.0000   1.0000   1.0000   1.0000

     highest occupied level (ev):    -0.4117

!    total energy              =     -23.92984354 Ry
     estimated scf accuracy    <          3.5E-10 Ry

     The total energy is the sum of the following terms:
     one-electron contribution =     -56.30672068 Ry
     hartree contribution      =      30.32386402 Ry
     xc contribution           =      -8.25763647 Ry
     ewald contribution        =      10.31064959 Ry

     convergence has been achieved in  20 iterations

     Writing all to output data dir ./tmp/graphene/graphene.save/

     init_run     :      0.40s CPU      0.42s WALL (       1 calls)
     electrons    :      5.47s CPU      5.55s WALL (       1 calls)

     Called by init_run:
     wfcinit      :      0.11s CPU      0.12s WALL (       1 calls)
     wfcinit:atom :      0.00s CPU      0.00s WALL (      14 calls)
     wfcinit:wfcr :      0.10s CPU      0.10s WALL (      14 calls)
     potinit      :      0.02s CPU      0.02s WALL (       1 calls)
     hinit0       :      0.24s CPU      0.24s WALL (       1 calls)

     Called by electrons:
     c_bands      :      3.85s CPU      3.90s WALL (      20 calls)
     sum_band     :      1.05s CPU      1.07s WALL (      20 calls)
     v_of_rho     :      0.14s CPU      0.14s WALL (      21 calls)
     v_h          :      0.03s CPU      0.04s WALL (      21 calls)
     v_xc         :      0.10s CPU      0.10s WALL (      21 calls)
     newd         :      0.32s CPU      0.33s WALL (      21 calls)
     mix_rho      :      0.08s CPU      0.08s WALL (      20 calls)

     Called by c_bands:
     init_us_2    :      0.15s CPU      0.15s WALL (     574 calls)
     init_us_2:cp :      0.15s CPU      0.15s WALL (     574 calls)
     cegterg      :      3.67s CPU      3.72s WALL (     280 calls)

     Called by sum_band:
     sum_band:wei :      0.00s CPU      0.00s WALL (      20 calls)
     sum_band:loo :      0.58s CPU      0.60s WALL (      20 calls)
     sum_band:buf :      0.00s CPU      0.00s WALL (     280 calls)
     sum_band:ini :      0.07s CPU      0.07s WALL (     280 calls)
     sum_band:cal :      0.01s CPU      0.01s WALL (     280 calls)
     sum_band:bec :      0.00s CPU      0.00s WALL (     280 calls)
     addusdens    :      0.35s CPU      0.36s WALL (      20 calls)
                                        0.00s GPU  (      20 calls)
     addusd:skk   :      0.01s CPU      0.01s WALL (      20 calls)
                                        0.00s GPU  (      20 calls)

     Called by *egterg:
     cdiaghg      :      0.06s CPU      0.06s WALL (    1301 calls)
     cegterg:over :      0.05s CPU      0.05s WALL (    1021 calls)
     cegterg:upda :      0.04s CPU      0.04s WALL (    1021 calls)
     cegterg:last :      0.06s CPU      0.06s WALL (     819 calls)
     h_psi        :      3.43s CPU      3.47s WALL (    1315 calls)
     s_psi        :      0.05s CPU      0.05s WALL (    1315 calls)
     g_psi        :      0.03s CPU      0.03s WALL (    1021 calls)

     Called by h_psi:
     h_psi:calbec :      0.06s CPU      0.06s WALL (    1315 calls)
     vloc_psi     :      3.30s CPU      3.35s WALL (    1315 calls)
     add_vuspsi   :      0.05s CPU      0.05s WALL (    1315 calls)

     General routines
     calbec       :      0.07s CPU      0.07s WALL (    1595 calls)
     fft          :      0.13s CPU      0.13s WALL (     124 calls)
     ffts         :      0.02s CPU      0.02s WALL (      41 calls)
     fftw         :      3.17s CPU      3.22s WALL (    9294 calls)
     interpolate  :      0.04s CPU      0.04s WALL (      21 calls)

     Parallel routines

     PWSCF        :      5.93s CPU      6.04s WALL


   This run was terminated on:  11:34:36   4Jul2023            

=------------------------------------------------------------------------------=
   JOB DONE.
=------------------------------------------------------------------------------=
