
     Program PWSCF v.7.2 starts on  4Jul2023 at 11:34:47 

     This program is part of the open-source Quantum ESPRESSO suite
     for quantum simulation of materials; please cite
         "P. Giannozzi et al., J. Phys.:Condens. Matter 21 395502 (2009);
         "P. Giannozzi et al., J. Phys.:Condens. Matter 29 465901 (2017);
         "P. Giannozzi et al., J. Chem. Phys. 152 154105 (2020);
          URL http://www.quantum-espresso.org", 
     in publications or presentations arising from this work. More details at
     http://www.quantum-espresso.org/quote

     Parallel version (MPI), running on     1 processors

     MPI processes distributed on     1 nodes
     1232 MiB available memory on the printing compute node when the environment starts

     Waiting for input...
     Reading input from standard input

     Current dimensions of program PWSCF are:
     Max number of different atomic species (ntypx) = 10
     Max number of k-points (npk) =  40000
     Max angular momentum in pseudopotentials (lmaxx) =  4

     Subspace diagonalization in iterative solution of the eigenvalue problem:
     a serial algorithm will be used


     G-vector sticks info
     --------------------
     sticks:   dense  smooth     PW     G-vecs:    dense   smooth      PW
     Sum         595     241     85                35435     8973    1651

     Using Slab Decomposition



     bravais-lattice index     =            4
     lattice parameter (alat)  =       4.6540  a.u.
     unit-cell volume          =     261.8973 (a.u.)^3
     number of atoms/cell      =            2
     number of atomic types    =            1
     number of electrons       =         8.00
     number of Kohn-Sham states=            4
     kinetic-energy cutoff     =      40.0000  Ry
     charge density cutoff     =     400.0000  Ry
     scf convergence threshold =      1.0E-08
     mixing beta               =       0.7000
     number of iterations used =            8  plain     mixing
     Exchange-correlation= LDA
                           (   1   1   0   0   0   0   0)

     celldm(1)=   4.654000  celldm(2)=   0.000000  celldm(3)=   3.000000
     celldm(4)=   0.000000  celldm(5)=   0.000000  celldm(6)=   0.000000

     crystal axes: (cart. coord. in units of alat)
               a(1) = (   1.000000   0.000000   0.000000 )  
               a(2) = (  -0.500000   0.866025   0.000000 )  
               a(3) = (   0.000000   0.000000   3.000000 )  

     reciprocal axes: (cart. coord. in units 2 pi/alat)
               b(1) = (  1.000000  0.577350 -0.000000 )  
               b(2) = (  0.000000  1.154701  0.000000 )  
               b(3) = (  0.000000 -0.000000  0.333333 )  


     PseudoPot. # 1 for C  read from file:
     ./C.pz-n-rrkjus_psl.0.1.UPF
     MD5 check sum: a3cecbabebb5b3a1aff122f23eb09bb0
     Pseudo is Ultrasoft + core correction, Zval =  4.0
     Generated using "atomic" code by A. Dal Corso  v.5.0.2 svn rev. 9415
     Using radial grid of 1073 points,  4 beta functions with: 
                l(1) =   0
                l(2) =   0
                l(3) =   1
                l(4) =   1
     Q(r) pseudized with 0 coefficients 


     atomic species   valence    mass     pseudopotential
        C              4.00    12.01070     C ( 1.00)

     24 Sym. Ops., with inversion, found (12 have fractional translation)


                                    s                        frac. trans.

      isym =  1     identity                                     

 cryst.   s( 1) = (     1          0          0      )
                  (     0          1          0      )
                  (     0          0          1      )

 cart.    s( 1) = (  1.0000000  0.0000000  0.0000000 )
                  (  0.0000000  1.0000000  0.0000000 )
                  (  0.0000000  0.0000000  1.0000000 )


      isym =  2     180 deg rotation - cart. axis [0,0,1]        

 cryst.   s( 2) = (    -1          0          0      )    f =( -0.3333334 )
                  (     0         -1          0      )       (  0.3333333 )
                  (     0          0          1      )       (  0.0000000 )

 cart.    s( 2) = ( -1.0000000  0.0000000  0.0000000 )    f =( -0.5000000 )
                  (  0.0000000 -1.0000000  0.0000000 )       (  0.2886751 )
                  (  0.0000000  0.0000000  1.0000000 )       (  0.0000000 )


      isym =  3     180 deg rotation - cart. axis [0,1,0]        

 cryst.   s( 3) = (    -1          0          0      )
                  (     1          1          0      )
                  (     0          0         -1      )

 cart.    s( 3) = ( -1.0000000  0.0000000  0.0000000 )
                  (  0.0000000  1.0000000  0.0000000 )
                  (  0.0000000  0.0000000 -1.0000000 )


      isym =  4     180 deg rotation - cart. axis [1,0,0]        

 cryst.   s( 4) = (     1          0          0      )    f =( -0.3333334 )
                  (    -1         -1          0      )       (  0.3333333 )
                  (     0          0         -1      )       (  0.0000000 )

 cart.    s( 4) = (  1.0000000  0.0000000  0.0000000 )    f =( -0.5000000 )
                  (  0.0000000 -1.0000000  0.0000000 )       (  0.2886751 )
                  (  0.0000000  0.0000000 -1.0000000 )       (  0.0000000 )


      isym =  5      60 deg rotation - cryst. axis [0,0,1]       

 cryst.   s( 5) = (     1          1          0      )    f =( -0.3333334 )
                  (    -1          0          0      )       (  0.3333334 )
                  (     0          0          1      )       (  0.0000000 )

 cart.    s( 5) = (  0.5000000 -0.8660254  0.0000000 )    f =( -0.5000000 )
                  (  0.8660254  0.5000000  0.0000000 )       (  0.2886751 )
                  (  0.0000000  0.0000000  1.0000000 )       (  0.0000000 )


      isym =  6      60 deg rotation - cryst. axis [0,0,-1]      

 cryst.   s( 6) = (     0         -1          0      )    f =( -0.3333333 )
                  (     1          1          0      )       (  0.3333334 )
                  (     0          0          1      )       (  0.0000000 )

 cart.    s( 6) = (  0.5000000  0.8660254  0.0000000 )    f =( -0.5000000 )
                  ( -0.8660254  0.5000000  0.0000000 )       (  0.2886751 )
                  (  0.0000000  0.0000000  1.0000000 )       (  0.0000000 )


      isym =  7     120 deg rotation - cryst. axis [0,0,1]       

 cryst.   s( 7) = (     0          1          0      )
                  (    -1         -1          0      )
                  (     0          0          1      )

 cart.    s( 7) = ( -0.5000000 -0.8660254  0.0000000 )
                  (  0.8660254 -0.5000000  0.0000000 )
                  (  0.0000000  0.0000000  1.0000000 )


      isym =  8     120 deg rotation - cryst. axis [0,0,-1]      

 cryst.   s( 8) = (    -1         -1          0      )
                  (     1          0          0      )
                  (     0          0          1      )

 cart.    s( 8) = ( -0.5000000  0.8660254  0.0000000 )
                  ( -0.8660254 -0.5000000  0.0000000 )
                  (  0.0000000  0.0000000  1.0000000 )


      isym =  9     180 deg rotation - cryst. axis [1,-1,0]      

 cryst.   s( 9) = (     0         -1          0      )
                  (    -1          0          0      )
                  (     0          0         -1      )

 cart.    s( 9) = (  0.5000000 -0.8660254  0.0000000 )
                  ( -0.8660254 -0.5000000  0.0000000 )
                  (  0.0000000  0.0000000 -1.0000000 )


      isym = 10     180 deg rotation - cryst. axis [2,1,0]       

 cryst.   s(10) = (     1          1          0      )
                  (     0         -1          0      )
                  (     0          0         -1      )

 cart.    s(10) = (  0.5000000  0.8660254  0.0000000 )
                  (  0.8660254 -0.5000000  0.0000000 )
                  (  0.0000000  0.0000000 -1.0000000 )


      isym = 11     180 deg rotation - cryst. axis [0,1,0]       

 cryst.   s(11) = (    -1         -1          0      )    f =( -0.3333334 )
                  (     0          1          0      )       (  0.3333334 )
                  (     0          0         -1      )       (  0.0000000 )

 cart.    s(11) = ( -0.5000000 -0.8660254  0.0000000 )    f =( -0.5000000 )
                  ( -0.8660254  0.5000000  0.0000000 )       (  0.2886751 )
                  (  0.0000000  0.0000000 -1.0000000 )       (  0.0000000 )


      isym = 12     180 deg rotation - cryst. axis [1,1,0]       

 cryst.   s(12) = (     0          1          0      )    f =( -0.3333333 )
                  (     1          0          0      )       (  0.3333334 )
                  (     0          0         -1      )       (  0.0000000 )

 cart.    s(12) = ( -0.5000000  0.8660254  0.0000000 )    f =( -0.5000000 )
                  (  0.8660254  0.5000000  0.0000000 )       (  0.2886751 )
                  (  0.0000000  0.0000000 -1.0000000 )       (  0.0000000 )


      isym = 13     inversion                                    

 cryst.   s(13) = (    -1          0          0      )    f =( -0.3333334 )
                  (     0         -1          0      )       (  0.3333333 )
                  (     0          0         -1      )       (  0.0000000 )

 cart.    s(13) = ( -1.0000000  0.0000000  0.0000000 )    f =( -0.5000000 )
                  (  0.0000000 -1.0000000  0.0000000 )       (  0.2886751 )
                  (  0.0000000  0.0000000 -1.0000000 )       (  0.0000000 )


      isym = 14     inv. 180 deg rotation - cart. axis [0,0,1]   

 cryst.   s(14) = (     1          0          0      )
                  (     0          1          0      )
                  (     0          0         -1      )

 cart.    s(14) = (  1.0000000  0.0000000  0.0000000 )
                  (  0.0000000  1.0000000  0.0000000 )
                  (  0.0000000  0.0000000 -1.0000000 )


      isym = 15     inv. 180 deg rotation - cart. axis [0,1,0]   

 cryst.   s(15) = (     1          0          0      )    f =( -0.3333334 )
                  (    -1         -1          0      )       (  0.3333333 )
                  (     0          0          1      )       (  0.0000000 )

 cart.    s(15) = (  1.0000000  0.0000000  0.0000000 )    f =( -0.5000000 )
                  (  0.0000000 -1.0000000  0.0000000 )       (  0.2886751 )
                  (  0.0000000  0.0000000  1.0000000 )       (  0.0000000 )


      isym = 16     inv. 180 deg rotation - cart. axis [1,0,0]   

 cryst.   s(16) = (    -1          0          0      )
                  (     1          1          0      )
                  (     0          0          1      )

 cart.    s(16) = ( -1.0000000  0.0000000  0.0000000 )
                  (  0.0000000  1.0000000  0.0000000 )
                  (  0.0000000  0.0000000  1.0000000 )


      isym = 17     inv.  60 deg rotation - cryst. axis [0,0,1]  

 cryst.   s(17) = (    -1         -1          0      )
                  (     1          0          0      )
                  (     0          0         -1      )

 cart.    s(17) = ( -0.5000000  0.8660254  0.0000000 )
                  ( -0.8660254 -0.5000000  0.0000000 )
                  (  0.0000000  0.0000000 -1.0000000 )


      isym = 18     inv.  60 deg rotation - cryst. axis [0,0,-1] 

 cryst.   s(18) = (     0          1          0      )
                  (    -1         -1          0      )
                  (     0          0         -1      )

 cart.    s(18) = ( -0.5000000 -0.8660254  0.0000000 )
                  (  0.8660254 -0.5000000  0.0000000 )
                  (  0.0000000  0.0000000 -1.0000000 )


      isym = 19     inv. 120 deg rotation - cryst. axis [0,0,1]  

 cryst.   s(19) = (     0         -1          0      )    f =( -0.3333333 )
                  (     1          1          0      )       (  0.3333334 )
                  (     0          0         -1      )       (  0.0000000 )

 cart.    s(19) = (  0.5000000  0.8660254  0.0000000 )    f =( -0.5000000 )
                  ( -0.8660254  0.5000000  0.0000000 )       (  0.2886751 )
                  (  0.0000000  0.0000000 -1.0000000 )       (  0.0000000 )


      isym = 20     inv. 120 deg rotation - cryst. axis [0,0,-1] 

 cryst.   s(20) = (     1          1          0      )    f =( -0.3333334 )
                  (    -1          0          0      )       (  0.3333334 )
                  (     0          0         -1      )       (  0.0000000 )

 cart.    s(20) = (  0.5000000 -0.8660254  0.0000000 )    f =( -0.5000000 )
                  (  0.8660254  0.5000000  0.0000000 )       (  0.2886751 )
                  (  0.0000000  0.0000000 -1.0000000 )       (  0.0000000 )


      isym = 21     inv. 180 deg rotation - cryst. axis [1,-1,0] 

 cryst.   s(21) = (     0          1          0      )    f =( -0.3333333 )
                  (     1          0          0      )       (  0.3333334 )
                  (     0          0          1      )       (  0.0000000 )

 cart.    s(21) = ( -0.5000000  0.8660254  0.0000000 )    f =( -0.5000000 )
                  (  0.8660254  0.5000000  0.0000000 )       (  0.2886751 )
                  (  0.0000000  0.0000000  1.0000000 )       (  0.0000000 )


      isym = 22     inv. 180 deg rotation - cryst. axis [2,1,0]  

 cryst.   s(22) = (    -1         -1          0      )    f =( -0.3333334 )
                  (     0          1          0      )       (  0.3333334 )
                  (     0          0          1      )       (  0.0000000 )

 cart.    s(22) = ( -0.5000000 -0.8660254  0.0000000 )    f =( -0.5000000 )
                  ( -0.8660254  0.5000000  0.0000000 )       (  0.2886751 )
                  (  0.0000000  0.0000000  1.0000000 )       (  0.0000000 )


      isym = 23     inv. 180 deg rotation - cryst. axis [0,1,0]  

 cryst.   s(23) = (     1          1          0      )
                  (     0         -1          0      )
                  (     0          0          1      )

 cart.    s(23) = (  0.5000000  0.8660254  0.0000000 )
                  (  0.8660254 -0.5000000  0.0000000 )
                  (  0.0000000  0.0000000  1.0000000 )


      isym = 24     inv. 180 deg rotation - cryst. axis [1,1,0]  

 cryst.   s(24) = (     0         -1          0      )
                  (    -1          0          0      )
                  (     0          0          1      )

 cart.    s(24) = (  0.5000000 -0.8660254  0.0000000 )
                  ( -0.8660254 -0.5000000  0.0000000 )
                  (  0.0000000  0.0000000  1.0000000 )


     point group D_6h(6/mmm)
     there are 12 classes
     the character table:

       E     2C6   2C3   C2    3C2'  3C2'' i     2S3   2S6   s_h   3s_d  3s_v 
A_1g   1.00  1.00  1.00  1.00  1.00  1.00  1.00  1.00  1.00  1.00  1.00  1.00
A_2g   1.00  1.00  1.00  1.00 -1.00 -1.00  1.00  1.00  1.00  1.00 -1.00 -1.00
B_1g   1.00 -1.00  1.00 -1.00  1.00 -1.00  1.00 -1.00  1.00 -1.00  1.00 -1.00
B_2g   1.00 -1.00  1.00 -1.00 -1.00  1.00  1.00 -1.00  1.00 -1.00 -1.00  1.00
E_1g   2.00  1.00 -1.00 -2.00  0.00  0.00  2.00  1.00 -1.00 -2.00  0.00  0.00
E_2g   2.00 -1.00 -1.00  2.00  0.00  0.00  2.00 -1.00 -1.00  2.00  0.00  0.00
A_1u   1.00  1.00  1.00  1.00  1.00  1.00 -1.00 -1.00 -1.00 -1.00 -1.00 -1.00
A_2u   1.00  1.00  1.00  1.00 -1.00 -1.00 -1.00 -1.00 -1.00 -1.00  1.00  1.00
B_1u   1.00 -1.00  1.00 -1.00  1.00 -1.00 -1.00  1.00 -1.00  1.00 -1.00  1.00
B_2u   1.00 -1.00  1.00 -1.00 -1.00  1.00 -1.00  1.00 -1.00  1.00  1.00 -1.00
E_1u   2.00  1.00 -1.00 -2.00  0.00  0.00 -2.00 -1.00  1.00  2.00  0.00  0.00
E_2u   2.00 -1.00 -1.00  2.00  0.00  0.00 -2.00  1.00  1.00 -2.00  0.00  0.00

     the symmetry operations in each class and the name of the first element:

     E        1
          identity                                               
     2C6      5    6
           60 deg rotation - cryst. axis [0,0,1]                 
     2C3      7    8
          120 deg rotation - cryst. axis [0,0,1]                 
     C2       2
          180 deg rotation - cart. axis [0,0,1]                  
     3C2'     4   12   11
          180 deg rotation - cart. axis [1,0,0]                  
     3C2''    3    9   10
          180 deg rotation - cart. axis [0,1,0]                  
     i       13
          inversion                                              
     2S3     17   18
          inv.  60 deg rotation - cryst. axis [0,0,1]            
     2S6     19   20
          inv. 120 deg rotation - cryst. axis [0,0,1]            
     s_h     14
          inv. 180 deg rotation - cart. axis [0,0,1]             
     3s_d    16   24   23
          inv. 180 deg rotation - cart. axis [1,0,0]             
     3s_v    15   21   22
          inv. 180 deg rotation - cart. axis [0,1,0]             

   Cartesian axes

     site n.     atom                  positions (alat units)
         1           C   tau(   1) = (   0.0000000   0.0000000   0.0000000  )
         2           C   tau(   2) = (   0.0000000   0.5773503   0.0000000  )

   Crystallographic axes

     site n.     atom                  positions (cryst. coord.)
         1           C   tau(   1) = (  0.0000000  0.0000000  0.0000000  )
         2           C   tau(   2) = (  0.3333334  0.6666667  0.0000000  )

     number of k points=    21
                       cart. coord. in units 2pi/alat
        k(    1) = (   0.0000000   0.0000000   0.0000000), wk =   0.0118343
        k(    2) = (   0.0000000   0.0888231   0.0000000), wk =   0.0710059
        k(    3) = (   0.0000000   0.1776462   0.0000000), wk =   0.0710059
        k(    4) = (   0.0000000   0.2664694   0.0000000), wk =   0.0710059
        k(    5) = (   0.0000000   0.3552925   0.0000000), wk =   0.0710059
        k(    6) = (   0.0000000   0.4441156   0.0000000), wk =   0.0710059
        k(    7) = (   0.0000000   0.5329387   0.0000000), wk =   0.0710059
        k(    8) = (   0.0769231   0.1332347   0.0000000), wk =   0.0710059
        k(    9) = (   0.0769231   0.2220578   0.0000000), wk =   0.1420118
        k(   10) = (   0.0769231   0.3108809   0.0000000), wk =   0.1420118
        k(   11) = (   0.0769231   0.3997040   0.0000000), wk =   0.1420118
        k(   12) = (   0.0769231   0.4885272   0.0000000), wk =   0.1420118
        k(   13) = (   0.0769231   0.5773503   0.0000000), wk =   0.0710059
        k(   14) = (   0.1538462   0.2664694   0.0000000), wk =   0.0710059
        k(   15) = (   0.1538462   0.3552925   0.0000000), wk =   0.1420118
        k(   16) = (   0.1538462   0.4441156   0.0000000), wk =   0.1420118
        k(   17) = (   0.1538462   0.5329387   0.0000000), wk =   0.1420118
        k(   18) = (   0.2307692   0.3997040   0.0000000), wk =   0.0710059
        k(   19) = (   0.2307692   0.4885272   0.0000000), wk =   0.1420118
        k(   20) = (   0.2307692   0.5773503   0.0000000), wk =   0.0710059
        k(   21) = (   0.3076923   0.5329387   0.0000000), wk =   0.0710059

                       cryst. coord.
        k(    1) = (   0.0000000   0.0000000   0.0000000), wk =   0.0118343
        k(    2) = (   0.0000000   0.0769231   0.0000000), wk =   0.0710059
        k(    3) = (   0.0000000   0.1538462   0.0000000), wk =   0.0710059
        k(    4) = (   0.0000000   0.2307692   0.0000000), wk =   0.0710059
        k(    5) = (   0.0000000   0.3076923   0.0000000), wk =   0.0710059
        k(    6) = (   0.0000000   0.3846154   0.0000000), wk =   0.0710059
        k(    7) = (   0.0000000   0.4615385   0.0000000), wk =   0.0710059
        k(    8) = (   0.0769231   0.0769231   0.0000000), wk =   0.0710059
        k(    9) = (   0.0769231   0.1538462   0.0000000), wk =   0.1420118
        k(   10) = (   0.0769231   0.2307692   0.0000000), wk =   0.1420118
        k(   11) = (   0.0769231   0.3076923   0.0000000), wk =   0.1420118
        k(   12) = (   0.0769231   0.3846154   0.0000000), wk =   0.1420118
        k(   13) = (   0.0769231   0.4615385   0.0000000), wk =   0.0710059
        k(   14) = (   0.1538462   0.1538462   0.0000000), wk =   0.0710059
        k(   15) = (   0.1538462   0.2307692   0.0000000), wk =   0.1420118
        k(   16) = (   0.1538462   0.3076923   0.0000000), wk =   0.1420118
        k(   17) = (   0.1538462   0.3846154   0.0000000), wk =   0.1420118
        k(   18) = (   0.2307692   0.2307692   0.0000000), wk =   0.0710059
        k(   19) = (   0.2307692   0.3076923   0.0000000), wk =   0.1420118
        k(   20) = (   0.2307692   0.3846154   0.0000000), wk =   0.0710059
        k(   21) = (   0.3076923   0.3076923   0.0000000), wk =   0.0710059

     Dense  grid:    35435 G-vectors     FFT dimensions: (  30,  30,  90)

     Smooth grid:     8973 G-vectors     FFT dimensions: (  24,  24,  60)

     Dynamical RAM for                 wfc:       0.07 MB

     Dynamical RAM for     wfc (w. buffer):       1.50 MB

     Dynamical RAM for           str. fact:       0.54 MB

     Dynamical RAM for           local pot:       0.00 MB

     Dynamical RAM for          nlocal pot:       0.27 MB

     Dynamical RAM for                qrad:       0.46 MB

     Dynamical RAM for          rho,v,vnew:       3.48 MB

     Dynamical RAM for               rhoin:       1.16 MB

     Dynamical RAM for            rho*nmix:       8.65 MB

     Dynamical RAM for           G-vectors:       2.10 MB

     Dynamical RAM for          h,s,v(r/c):       0.00 MB

     Dynamical RAM for          <psi|beta>:       0.00 MB

     Dynamical RAM for                 psi:       0.14 MB

     Dynamical RAM for                hpsi:       0.14 MB

     Dynamical RAM for                spsi:       0.14 MB

     Dynamical RAM for      wfcinit/wfcrot:       0.27 MB

     Dynamical RAM for           addusdens:      24.33 MB

     Estimated static dynamical RAM per process >      13.68 MB

     Estimated max dynamical RAM per process >      46.66 MB

     Check: negative core charge=   -0.000002

     Initial potential from superposition of free atoms

     starting charge       7.9999, renormalised to       8.0000
     Starting wfcs are    8 randomized atomic wfcs

     total cpu time spent up to now is        0.5 secs

     Self-consistent Calculation

     iteration #  1     ecut=    40.00 Ry     beta= 0.70
     Davidson diagonalization with overlap

---- Real-time Memory Report at c_bands before calling an iterative solver
            69 MiB given to the printing process from OS
             0 MiB allocation reported by mallinfo(arena+hblkhd)
          1208 MiB available memory on the node where the printing process lives
------------------
     ethr =  1.00E-02,  avg # of iterations =  3.4

     total cpu time spent up to now is        0.9 secs

     total energy              =     -23.90829940 Ry
     estimated scf accuracy    <       0.13531607 Ry

     iteration #  2     ecut=    40.00 Ry     beta= 0.70
     Davidson diagonalization with overlap

---- Real-time Memory Report at c_bands before calling an iterative solver
            80 MiB given to the printing process from OS
             0 MiB allocation reported by mallinfo(arena+hblkhd)
          1202 MiB available memory on the node where the printing process lives
------------------
     ethr =  1.69E-03,  avg # of iterations =  2.0

     negative rho (up, down):  1.548E-06 0.000E+00

     total cpu time spent up to now is        1.2 secs

     total energy              =     -23.92186158 Ry
     estimated scf accuracy    <       0.01011003 Ry

     iteration #  3     ecut=    40.00 Ry     beta= 0.70
     Davidson diagonalization with overlap

---- Real-time Memory Report at c_bands before calling an iterative solver
            80 MiB given to the printing process from OS
             0 MiB allocation reported by mallinfo(arena+hblkhd)
          1202 MiB available memory on the node where the printing process lives
------------------
     ethr =  1.26E-04,  avg # of iterations =  5.1

     negative rho (up, down):  2.484E-08 0.000E+00

     total cpu time spent up to now is        1.6 secs

     total energy              =     -23.92924836 Ry
     estimated scf accuracy    <       0.00324535 Ry

     iteration #  4     ecut=    40.00 Ry     beta= 0.70
     Davidson diagonalization with overlap

---- Real-time Memory Report at c_bands before calling an iterative solver
            81 MiB given to the printing process from OS
             0 MiB allocation reported by mallinfo(arena+hblkhd)
          1201 MiB available memory on the node where the printing process lives
------------------
     ethr =  4.06E-05,  avg # of iterations =  1.9

     negative rho (up, down):  1.013E-06 0.000E+00

     total cpu time spent up to now is        1.9 secs

     total energy              =     -23.92923100 Ry
     estimated scf accuracy    <       0.00056710 Ry

     iteration #  5     ecut=    40.00 Ry     beta= 0.70
     Davidson diagonalization with overlap

---- Real-time Memory Report at c_bands before calling an iterative solver
            81 MiB given to the printing process from OS
             0 MiB allocation reported by mallinfo(arena+hblkhd)
          1201 MiB available memory on the node where the printing process lives
------------------
     ethr =  7.09E-06,  avg # of iterations =  5.3

     negative rho (up, down):  1.236E-06 0.000E+00

     total cpu time spent up to now is        2.3 secs

     total energy              =     -23.92967491 Ry
     estimated scf accuracy    <       0.00066696 Ry

     iteration #  6     ecut=    40.00 Ry     beta= 0.70
     Davidson diagonalization with overlap

---- Real-time Memory Report at c_bands before calling an iterative solver
            81 MiB given to the printing process from OS
             0 MiB allocation reported by mallinfo(arena+hblkhd)
          1201 MiB available memory on the node where the printing process lives
------------------
     ethr =  7.09E-06,  avg # of iterations =  1.0

     negative rho (up, down):  1.234E-06 0.000E+00

     total cpu time spent up to now is        2.6 secs

     total energy              =     -23.92969236 Ry
     estimated scf accuracy    <       0.00020304 Ry

     iteration #  7     ecut=    40.00 Ry     beta= 0.70
     Davidson diagonalization with overlap

---- Real-time Memory Report at c_bands before calling an iterative solver
            82 MiB given to the printing process from OS
             0 MiB allocation reported by mallinfo(arena+hblkhd)
          1201 MiB available memory on the node where the printing process lives
------------------
     ethr =  2.54E-06,  avg # of iterations =  1.8

     negative rho (up, down):  1.130E-06 0.000E+00

     total cpu time spent up to now is        2.9 secs

     total energy              =     -23.92958552 Ry
     estimated scf accuracy    <       0.00016898 Ry

     iteration #  8     ecut=    40.00 Ry     beta= 0.70
     Davidson diagonalization with overlap

---- Real-time Memory Report at c_bands before calling an iterative solver
            82 MiB given to the printing process from OS
             0 MiB allocation reported by mallinfo(arena+hblkhd)
          1200 MiB available memory on the node where the printing process lives
------------------
     ethr =  2.11E-06,  avg # of iterations =  3.3

     negative rho (up, down):  1.128E-06 0.000E+00

     total cpu time spent up to now is        3.2 secs

     total energy              =     -23.92966041 Ry
     estimated scf accuracy    <       0.00001897 Ry

     iteration #  9     ecut=    40.00 Ry     beta= 0.70
     Davidson diagonalization with overlap

---- Real-time Memory Report at c_bands before calling an iterative solver
            82 MiB given to the printing process from OS
             0 MiB allocation reported by mallinfo(arena+hblkhd)
          1200 MiB available memory on the node where the printing process lives
------------------
     ethr =  2.37E-07,  avg # of iterations =  4.1

     negative rho (up, down):  1.173E-06 0.000E+00

     total cpu time spent up to now is        3.6 secs

     total energy              =     -23.92966430 Ry
     estimated scf accuracy    <       0.00001105 Ry

     iteration # 10     ecut=    40.00 Ry     beta= 0.70
     Davidson diagonalization with overlap

---- Real-time Memory Report at c_bands before calling an iterative solver
            82 MiB given to the printing process from OS
             0 MiB allocation reported by mallinfo(arena+hblkhd)
          1200 MiB available memory on the node where the printing process lives
------------------
     ethr =  1.38E-07,  avg # of iterations =  2.0

     negative rho (up, down):  1.144E-06 0.000E+00

     total cpu time spent up to now is        3.9 secs

     total energy              =     -23.92966342 Ry
     estimated scf accuracy    <       0.00000423 Ry

     iteration # 11     ecut=    40.00 Ry     beta= 0.70
     Davidson diagonalization with overlap

---- Real-time Memory Report at c_bands before calling an iterative solver
            82 MiB given to the printing process from OS
             0 MiB allocation reported by mallinfo(arena+hblkhd)
          1200 MiB available memory on the node where the printing process lives
------------------
     ethr =  5.28E-08,  avg # of iterations =  4.7

     negative rho (up, down):  1.147E-06 0.000E+00

     total cpu time spent up to now is        4.3 secs

     total energy              =     -23.92966502 Ry
     estimated scf accuracy    <       0.00000628 Ry

     iteration # 12     ecut=    40.00 Ry     beta= 0.70
     Davidson diagonalization with overlap

---- Real-time Memory Report at c_bands before calling an iterative solver
            82 MiB given to the printing process from OS
             0 MiB allocation reported by mallinfo(arena+hblkhd)
          1200 MiB available memory on the node where the printing process lives
------------------
     ethr =  5.28E-08,  avg # of iterations =  1.2

     negative rho (up, down):  1.154E-06 0.000E+00

     total cpu time spent up to now is        4.6 secs

     total energy              =     -23.92966407 Ry
     estimated scf accuracy    <       0.00000198 Ry

     iteration # 13     ecut=    40.00 Ry     beta= 0.70
     Davidson diagonalization with overlap

---- Real-time Memory Report at c_bands before calling an iterative solver
            82 MiB given to the printing process from OS
             0 MiB allocation reported by mallinfo(arena+hblkhd)
          1199 MiB available memory on the node where the printing process lives
------------------
     ethr =  2.48E-08,  avg # of iterations =  3.4

     negative rho (up, down):  1.149E-06 0.000E+00

     total cpu time spent up to now is        4.9 secs

     total energy              =     -23.92966486 Ry
     estimated scf accuracy    <       0.00000005 Ry

     iteration # 14     ecut=    40.00 Ry     beta= 0.70
     Davidson diagonalization with overlap

---- Real-time Memory Report at c_bands before calling an iterative solver
            82 MiB given to the printing process from OS
             0 MiB allocation reported by mallinfo(arena+hblkhd)
          1199 MiB available memory on the node where the printing process lives
------------------
     ethr =  6.66E-10,  avg # of iterations =  6.0

     negative rho (up, down):  1.149E-06 0.000E+00

     total cpu time spent up to now is        5.4 secs

     total energy              =     -23.92966491 Ry
     estimated scf accuracy    <       0.00000048 Ry

     iteration # 15     ecut=    40.00 Ry     beta= 0.70
     Davidson diagonalization with overlap

---- Real-time Memory Report at c_bands before calling an iterative solver
            82 MiB given to the printing process from OS
             0 MiB allocation reported by mallinfo(arena+hblkhd)
          1199 MiB available memory on the node where the printing process lives
------------------
     ethr =  6.66E-10,  avg # of iterations =  1.0

     negative rho (up, down):  1.158E-06 0.000E+00

     total cpu time spent up to now is        5.6 secs

     total energy              =     -23.92966462 Ry
     estimated scf accuracy    <       0.00000042 Ry

     iteration # 16     ecut=    40.00 Ry     beta= 0.70
     Davidson diagonalization with overlap

---- Real-time Memory Report at c_bands before calling an iterative solver
            82 MiB given to the printing process from OS
             0 MiB allocation reported by mallinfo(arena+hblkhd)
          1199 MiB available memory on the node where the printing process lives
------------------
     ethr =  6.66E-10,  avg # of iterations =  6.2

     negative rho (up, down):  1.154E-06 0.000E+00

     total cpu time spent up to now is        6.1 secs

     total energy              =     -23.92966472 Ry
     estimated scf accuracy    <       0.00000007 Ry

     iteration # 17     ecut=    40.00 Ry     beta= 0.70
     Davidson diagonalization with overlap

---- Real-time Memory Report at c_bands before calling an iterative solver
            82 MiB given to the printing process from OS
             0 MiB allocation reported by mallinfo(arena+hblkhd)
          1198 MiB available memory on the node where the printing process lives
------------------
     ethr =  6.66E-10,  avg # of iterations =  3.9

     negative rho (up, down):  1.155E-06 0.000E+00

     total cpu time spent up to now is        6.5 secs

     total energy              =     -23.92966473 Ry
     estimated scf accuracy    <       0.00000001 Ry

     iteration # 18     ecut=    40.00 Ry     beta= 0.70
     Davidson diagonalization with overlap

---- Real-time Memory Report at c_bands before calling an iterative solver
            82 MiB given to the printing process from OS
             0 MiB allocation reported by mallinfo(arena+hblkhd)
          1187 MiB available memory on the node where the printing process lives
------------------
     ethr =  1.59E-10,  avg # of iterations =  1.9

     negative rho (up, down):  1.154E-06 0.000E+00

     total cpu time spent up to now is        6.7 secs

     End of self-consistent calculation

          k = 0.0000 0.0000 0.0000 (  1133 PWs)   bands (ev):

   -18.7141  -7.0483  -2.4181  -2.4181

     occupation numbers 
     1.0000   1.0000   1.0000   1.0000

          k = 0.0000 0.0888 0.0000 (  1122 PWs)   bands (ev):

   -18.5750  -6.8804  -2.9638  -2.7101

     occupation numbers 
     1.0000   1.0000   1.0000   1.0000

          k = 0.0000 0.1776 0.0000 (  1128 PWs)   bands (ev):

   -18.1589  -6.3806  -4.3732  -3.4156

     occupation numbers 
     1.0000   1.0000   1.0000   1.0000

          k = 0.0000 0.2665 0.0000 (  1118 PWs)   bands (ev):

   -17.4698  -6.2356  -5.5618  -4.2361

     occupation numbers 
     1.0000   1.0000   1.0000   1.0000

          k = 0.0000 0.3553 0.0000 (  1110 PWs)   bands (ev):

   -16.5154  -8.2466  -4.9650  -4.4558

     occupation numbers 
     1.0000   1.0000   1.0000   1.0000

          k = 0.0000 0.4441 0.0000 (  1116 PWs)   bands (ev):

   -15.3111 -10.2242  -5.4931  -3.1483

     occupation numbers 
     1.0000   1.0000   1.0000   1.0000

          k = 0.0000 0.5329 0.0000 (  1130 PWs)   bands (ev):

   -13.9174 -12.0224  -5.7679  -1.9647

     occupation numbers 
     1.0000   1.0000   1.0000   1.0000

          k = 0.0769 0.1332 0.0000 (  1123 PWs)   bands (ev):

   -18.2974  -6.5465  -3.8564  -3.2949

     occupation numbers 
     1.0000   1.0000   1.0000   1.0000

          k = 0.0769 0.2221 0.0000 (  1127 PWs)   bands (ev):

   -17.7449  -5.8865  -5.3627  -4.1902

     occupation numbers 
     1.0000   1.0000   1.0000   1.0000

          k = 0.0769 0.3109 0.0000 (  1120 PWs)   bands (ev):

   -16.9231  -7.2299  -5.0356  -4.9208

     occupation numbers 
     1.0000   1.0000   1.0000   1.0000

          k = 0.0769 0.3997 0.0000 (  1120 PWs)   bands (ev):

   -15.8433  -9.1940  -5.6943  -3.6989

     occupation numbers 
     1.0000   1.0000   1.0000   1.0000

          k = 0.0769 0.4885 0.0000 (  1117 PWs)   bands (ev):

   -14.5316 -11.0817  -6.1075  -2.3764

     occupation numbers 
     1.0000   1.0000   1.0000   1.0000

          k = 0.0769 0.5774 0.0000 (  1124 PWs)   bands (ev):

   -13.3434 -12.4687  -6.2478  -1.6160

     occupation numbers 
     1.0000   1.0000   1.0000   1.0000

          k = 0.1538 0.2665 0.0000 (  1119 PWs)   bands (ev):

   -17.0597  -6.5857  -5.4008  -5.0775

     occupation numbers 
     1.0000   1.0000   1.0000   1.0000

          k = 0.1538 0.3553 0.0000 (  1123 PWs)   bands (ev):

   -16.1123  -8.1751  -6.4083  -3.9836

     occupation numbers 
     1.0000   1.0000   1.0000   1.0000

          k = 0.1538 0.4441 0.0000 (  1118 PWs)   bands (ev):

   -14.9204  -9.9728  -7.0332  -2.6823

     occupation numbers 
     1.0000   1.0000   1.0000   1.0000

          k = 0.1538 0.5329 0.0000 (  1106 PWs)   bands (ev):

   -13.5499 -11.6890  -7.3361  -1.4711

     occupation numbers 
     1.0000   1.0000   1.0000   1.0000

          k = 0.2308 0.3997 0.0000 (  1117 PWs)   bands (ev):

   -15.0520  -9.1858  -7.7962  -2.7928

     occupation numbers 
     1.0000   1.0000   1.0000   1.0000

          k = 0.2308 0.4885 0.0000 (  1109 PWs)   bands (ev):

   -13.7762 -10.5802  -8.5687  -1.4635

     occupation numbers 
     1.0000   1.0000   1.0000   1.0000

          k = 0.2308 0.5774 0.0000 (  1110 PWs)   bands (ev):

   -12.6400 -11.8153  -8.7796  -0.6019

     occupation numbers 
     1.0000   1.0000   1.0000   1.0000

          k = 0.3077 0.5329 0.0000 (  1111 PWs)   bands (ev):

   -12.4967 -11.2426  -9.7382  -0.1587

     occupation numbers 
     1.0000   1.0000   1.0000   1.0000

     highest occupied level (ev):    -0.1587

!    total energy              =     -23.92966473 Ry
     estimated scf accuracy    <          8.2E-09 Ry

     The total energy is the sum of the following terms:
     one-electron contribution =     -56.30643752 Ry
     hartree contribution      =      30.32374370 Ry
     xc contribution           =      -8.25762050 Ry
     ewald contribution        =      10.31064959 Ry

     convergence has been achieved in  18 iterations

     Writing all to output data dir ./tmp/graphene/graphene.save/

     init_run     :      0.44s CPU      0.46s WALL (       1 calls)
     electrons    :      6.17s CPU      6.23s WALL (       1 calls)

     Called by init_run:
     wfcinit      :      0.16s CPU      0.16s WALL (       1 calls)
     wfcinit:atom :      0.00s CPU      0.00s WALL (      21 calls)
     wfcinit:wfcr :      0.14s CPU      0.14s WALL (      21 calls)
     potinit      :      0.02s CPU      0.02s WALL (       1 calls)
     hinit0       :      0.23s CPU      0.23s WALL (       1 calls)

     Called by electrons:
     c_bands      :      4.51s CPU      4.54s WALL (      18 calls)
     sum_band     :      1.18s CPU      1.19s WALL (      18 calls)
     v_of_rho     :      0.12s CPU      0.12s WALL (      19 calls)
     v_h          :      0.03s CPU      0.04s WALL (      19 calls)
     v_xc         :      0.09s CPU      0.09s WALL (      19 calls)
     newd         :      0.27s CPU      0.29s WALL (      19 calls)
     mix_rho      :      0.07s CPU      0.07s WALL (      18 calls)

     Called by c_bands:
     init_us_2    :      0.20s CPU      0.20s WALL (     777 calls)
     init_us_2:cp :      0.19s CPU      0.20s WALL (     777 calls)
     cegterg      :      4.28s CPU      4.31s WALL (     378 calls)

     Called by sum_band:
     sum_band:wei :      0.00s CPU      0.00s WALL (      18 calls)
     sum_band:loo :      0.78s CPU      0.79s WALL (      18 calls)
     sum_band:buf :      0.00s CPU      0.00s WALL (     378 calls)
     sum_band:ini :      0.10s CPU      0.10s WALL (     378 calls)
     sum_band:cal :      0.02s CPU      0.02s WALL (     378 calls)
     sum_band:bec :      0.00s CPU      0.00s WALL (     378 calls)
     addusdens    :      0.31s CPU      0.31s WALL (      18 calls)
                                        0.00s GPU  (      18 calls)
     addusd:skk   :      0.01s CPU      0.01s WALL (      18 calls)
                                        0.00s GPU  (      18 calls)

     Called by *egterg:
     cdiaghg      :      0.07s CPU      0.07s WALL (    1599 calls)
     cegterg:over :      0.05s CPU      0.05s WALL (    1221 calls)
     cegterg:upda :      0.04s CPU      0.04s WALL (    1221 calls)
     cegterg:last :      0.06s CPU      0.06s WALL (     975 calls)
     h_psi        :      4.03s CPU      4.06s WALL (    1620 calls)
     s_psi        :      0.05s CPU      0.06s WALL (    1620 calls)
     g_psi        :      0.04s CPU      0.04s WALL (    1221 calls)

     Called by h_psi:
     h_psi:calbec :      0.06s CPU      0.07s WALL (    1620 calls)
     vloc_psi     :      3.89s CPU      3.92s WALL (    1620 calls)
     add_vuspsi   :      0.06s CPU      0.06s WALL (    1620 calls)

     General routines
     calbec       :      0.08s CPU      0.08s WALL (    1998 calls)
     fft          :      0.10s CPU      0.10s WALL (     112 calls)
     ffts         :      0.01s CPU      0.01s WALL (      37 calls)
     fftw         :      3.79s CPU      3.82s WALL (   11532 calls)
     interpolate  :      0.03s CPU      0.03s WALL (      19 calls)

     Parallel routines

     PWSCF        :      6.67s CPU      6.76s WALL


   This run was terminated on:  11:34:54   4Jul2023            

=------------------------------------------------------------------------------=
   JOB DONE.
=------------------------------------------------------------------------------=
