
     Program PWSCF v.7.2 starts on  4Jul2023 at 12:28:38 

     This program is part of the open-source Quantum ESPRESSO suite
     for quantum simulation of materials; please cite
         "P. Giannozzi et al., J. Phys.:Condens. Matter 21 395502 (2009);
         "P. Giannozzi et al., J. Phys.:Condens. Matter 29 465901 (2017);
         "P. Giannozzi et al., J. Chem. Phys. 152 154105 (2020);
          URL http://www.quantum-espresso.org", 
     in publications or presentations arising from this work. More details at
     http://www.quantum-espresso.org/quote

     Parallel version (MPI), running on     1 processors

     MPI processes distributed on     1 nodes
     1277 MiB available memory on the printing compute node when the environment starts

     Waiting for input...
     Reading input from standard input

     Current dimensions of program PWSCF are:
     Max number of different atomic species (ntypx) = 10
     Max number of k-points (npk) =  40000
     Max angular momentum in pseudopotentials (lmaxx) =  4

     Atomic positions and unit cell read from directory:
     ./tmp/graphene/graphene.save/

     [opt_tetra]  Optimized tetrahedron method is used.

     Subspace diagonalization in iterative solution of the eigenvalue problem:
     a serial algorithm will be used


     G-vector sticks info
     --------------------
     sticks:   dense  smooth     PW     G-vecs:    dense   smooth      PW
     Sum         583     241     85                34703     8875    1651

     Using Slab Decomposition



     bravais-lattice index     =            4
     lattice parameter (alat)  =       4.6300  a.u.
     unit-cell volume          =     257.8665 (a.u.)^3
     number of atoms/cell      =            2
     number of atomic types    =            1
     number of electrons       =         8.00
     number of Kohn-Sham states=            8
     kinetic-energy cutoff     =      40.0000  Ry
     charge density cutoff     =     400.0000  Ry
     Exchange-correlation= LDA
                           (   1   1   0   0   0   0   0)

     celldm(1)=   4.630000  celldm(2)=   0.000000  celldm(3)=   3.000000
     celldm(4)=   0.000000  celldm(5)=   0.000000  celldm(6)=   0.000000

     crystal axes: (cart. coord. in units of alat)
               a(1) = (   1.000000   0.000000   0.000000 )  
               a(2) = (  -0.500000   0.866025   0.000000 )  
               a(3) = (   0.000000   0.000000   3.000000 )  

     reciprocal axes: (cart. coord. in units 2 pi/alat)
               b(1) = (  1.000000  0.577350 -0.000000 )  
               b(2) = (  0.000000  1.154701  0.000000 )  
               b(3) = (  0.000000 -0.000000  0.333333 )  


     PseudoPot. # 1 for C  read from file:
     ./C.pz-n-rrkjus_psl.0.1.UPF
     MD5 check sum: a3cecbabebb5b3a1aff122f23eb09bb0
     Pseudo is Ultrasoft + core correction, Zval =  4.0
     Generated using "atomic" code by A. Dal Corso  v.5.0.2 svn rev. 9415
     Using radial grid of 1073 points,  4 beta functions with: 
                l(1) =   0
                l(2) =   0
                l(3) =   1
                l(4) =   1
     Q(r) pseudized with 0 coefficients 


     atomic species   valence    mass     pseudopotential
        C              4.00    12.01070     C ( 1.00)

     24 Sym. Ops., with inversion, found (12 have fractional translation)


                                    s                        frac. trans.

      isym =  1     identity                                     

 cryst.   s( 1) = (     1          0          0      )
                  (     0          1          0      )
                  (     0          0          1      )

 cart.    s( 1) = (  1.0000000  0.0000000  0.0000000 )
                  (  0.0000000  1.0000000  0.0000000 )
                  (  0.0000000  0.0000000  1.0000000 )


      isym =  2     180 deg rotation - cart. axis [0,0,1]        

 cryst.   s( 2) = (    -1          0          0      )    f =( -0.3333334 )
                  (     0         -1          0      )       (  0.3333333 )
                  (     0          0          1      )       (  0.0000000 )

 cart.    s( 2) = ( -1.0000000  0.0000000  0.0000000 )    f =( -0.5000000 )
                  (  0.0000000 -1.0000000  0.0000000 )       (  0.2886751 )
                  (  0.0000000  0.0000000  1.0000000 )       (  0.0000000 )


      isym =  3     180 deg rotation - cart. axis [0,1,0]        

 cryst.   s( 3) = (    -1          0          0      )
                  (     1          1          0      )
                  (     0          0         -1      )

 cart.    s( 3) = ( -1.0000000  0.0000000  0.0000000 )
                  (  0.0000000  1.0000000  0.0000000 )
                  (  0.0000000  0.0000000 -1.0000000 )


      isym =  4     180 deg rotation - cart. axis [1,0,0]        

 cryst.   s( 4) = (     1          0          0      )    f =( -0.3333334 )
                  (    -1         -1          0      )       (  0.3333333 )
                  (     0          0         -1      )       (  0.0000000 )

 cart.    s( 4) = (  1.0000000  0.0000000  0.0000000 )    f =( -0.5000000 )
                  (  0.0000000 -1.0000000  0.0000000 )       (  0.2886751 )
                  (  0.0000000  0.0000000 -1.0000000 )       (  0.0000000 )


      isym =  5      60 deg rotation - cryst. axis [0,0,1]       

 cryst.   s( 5) = (     1          1          0      )    f =( -0.3333334 )
                  (    -1          0          0      )       (  0.3333334 )
                  (     0          0          1      )       (  0.0000000 )

 cart.    s( 5) = (  0.5000000 -0.8660254  0.0000000 )    f =( -0.5000000 )
                  (  0.8660254  0.5000000  0.0000000 )       (  0.2886751 )
                  (  0.0000000  0.0000000  1.0000000 )       (  0.0000000 )


      isym =  6      60 deg rotation - cryst. axis [0,0,-1]      

 cryst.   s( 6) = (     0         -1          0      )    f =( -0.3333333 )
                  (     1          1          0      )       (  0.3333334 )
                  (     0          0          1      )       (  0.0000000 )

 cart.    s( 6) = (  0.5000000  0.8660254  0.0000000 )    f =( -0.5000000 )
                  ( -0.8660254  0.5000000  0.0000000 )       (  0.2886751 )
                  (  0.0000000  0.0000000  1.0000000 )       (  0.0000000 )


      isym =  7     120 deg rotation - cryst. axis [0,0,1]       

 cryst.   s( 7) = (     0          1          0      )
                  (    -1         -1          0      )
                  (     0          0          1      )

 cart.    s( 7) = ( -0.5000000 -0.8660254  0.0000000 )
                  (  0.8660254 -0.5000000  0.0000000 )
                  (  0.0000000  0.0000000  1.0000000 )


      isym =  8     120 deg rotation - cryst. axis [0,0,-1]      

 cryst.   s( 8) = (    -1         -1          0      )
                  (     1          0          0      )
                  (     0          0          1      )

 cart.    s( 8) = ( -0.5000000  0.8660254  0.0000000 )
                  ( -0.8660254 -0.5000000  0.0000000 )
                  (  0.0000000  0.0000000  1.0000000 )


      isym =  9     180 deg rotation - cryst. axis [1,-1,0]      

 cryst.   s( 9) = (     0         -1          0      )
                  (    -1          0          0      )
                  (     0          0         -1      )

 cart.    s( 9) = (  0.5000000 -0.8660254  0.0000000 )
                  ( -0.8660254 -0.5000000  0.0000000 )
                  (  0.0000000  0.0000000 -1.0000000 )


      isym = 10     180 deg rotation - cryst. axis [2,1,0]       

 cryst.   s(10) = (     1          1          0      )
                  (     0         -1          0      )
                  (     0          0         -1      )

 cart.    s(10) = (  0.5000000  0.8660254  0.0000000 )
                  (  0.8660254 -0.5000000  0.0000000 )
                  (  0.0000000  0.0000000 -1.0000000 )


      isym = 11     180 deg rotation - cryst. axis [0,1,0]       

 cryst.   s(11) = (    -1         -1          0      )    f =( -0.3333334 )
                  (     0          1          0      )       (  0.3333334 )
                  (     0          0         -1      )       (  0.0000000 )

 cart.    s(11) = ( -0.5000000 -0.8660254  0.0000000 )    f =( -0.5000000 )
                  ( -0.8660254  0.5000000  0.0000000 )       (  0.2886751 )
                  (  0.0000000  0.0000000 -1.0000000 )       (  0.0000000 )


      isym = 12     180 deg rotation - cryst. axis [1,1,0]       

 cryst.   s(12) = (     0          1          0      )    f =( -0.3333333 )
                  (     1          0          0      )       (  0.3333334 )
                  (     0          0         -1      )       (  0.0000000 )

 cart.    s(12) = ( -0.5000000  0.8660254  0.0000000 )    f =( -0.5000000 )
                  (  0.8660254  0.5000000  0.0000000 )       (  0.2886751 )
                  (  0.0000000  0.0000000 -1.0000000 )       (  0.0000000 )


      isym = 13     inversion                                    

 cryst.   s(13) = (    -1          0          0      )    f =( -0.3333334 )
                  (     0         -1          0      )       (  0.3333333 )
                  (     0          0         -1      )       (  0.0000000 )

 cart.    s(13) = ( -1.0000000  0.0000000  0.0000000 )    f =( -0.5000000 )
                  (  0.0000000 -1.0000000  0.0000000 )       (  0.2886751 )
                  (  0.0000000  0.0000000 -1.0000000 )       (  0.0000000 )


      isym = 14     inv. 180 deg rotation - cart. axis [0,0,1]   

 cryst.   s(14) = (     1          0          0      )
                  (     0          1          0      )
                  (     0          0         -1      )

 cart.    s(14) = (  1.0000000  0.0000000  0.0000000 )
                  (  0.0000000  1.0000000  0.0000000 )
                  (  0.0000000  0.0000000 -1.0000000 )


      isym = 15     inv. 180 deg rotation - cart. axis [0,1,0]   

 cryst.   s(15) = (     1          0          0      )    f =( -0.3333334 )
                  (    -1         -1          0      )       (  0.3333333 )
                  (     0          0          1      )       (  0.0000000 )

 cart.    s(15) = (  1.0000000  0.0000000  0.0000000 )    f =( -0.5000000 )
                  (  0.0000000 -1.0000000  0.0000000 )       (  0.2886751 )
                  (  0.0000000  0.0000000  1.0000000 )       (  0.0000000 )


      isym = 16     inv. 180 deg rotation - cart. axis [1,0,0]   

 cryst.   s(16) = (    -1          0          0      )
                  (     1          1          0      )
                  (     0          0          1      )

 cart.    s(16) = ( -1.0000000  0.0000000  0.0000000 )
                  (  0.0000000  1.0000000  0.0000000 )
                  (  0.0000000  0.0000000  1.0000000 )


      isym = 17     inv.  60 deg rotation - cryst. axis [0,0,1]  

 cryst.   s(17) = (    -1         -1          0      )
                  (     1          0          0      )
                  (     0          0         -1      )

 cart.    s(17) = ( -0.5000000  0.8660254  0.0000000 )
                  ( -0.8660254 -0.5000000  0.0000000 )
                  (  0.0000000  0.0000000 -1.0000000 )


      isym = 18     inv.  60 deg rotation - cryst. axis [0,0,-1] 

 cryst.   s(18) = (     0          1          0      )
                  (    -1         -1          0      )
                  (     0          0         -1      )

 cart.    s(18) = ( -0.5000000 -0.8660254  0.0000000 )
                  (  0.8660254 -0.5000000  0.0000000 )
                  (  0.0000000  0.0000000 -1.0000000 )


      isym = 19     inv. 120 deg rotation - cryst. axis [0,0,1]  

 cryst.   s(19) = (     0         -1          0      )    f =( -0.3333333 )
                  (     1          1          0      )       (  0.3333334 )
                  (     0          0         -1      )       (  0.0000000 )

 cart.    s(19) = (  0.5000000  0.8660254  0.0000000 )    f =( -0.5000000 )
                  ( -0.8660254  0.5000000  0.0000000 )       (  0.2886751 )
                  (  0.0000000  0.0000000 -1.0000000 )       (  0.0000000 )


      isym = 20     inv. 120 deg rotation - cryst. axis [0,0,-1] 

 cryst.   s(20) = (     1          1          0      )    f =( -0.3333334 )
                  (    -1          0          0      )       (  0.3333334 )
                  (     0          0         -1      )       (  0.0000000 )

 cart.    s(20) = (  0.5000000 -0.8660254  0.0000000 )    f =( -0.5000000 )
                  (  0.8660254  0.5000000  0.0000000 )       (  0.2886751 )
                  (  0.0000000  0.0000000 -1.0000000 )       (  0.0000000 )


      isym = 21     inv. 180 deg rotation - cryst. axis [1,-1,0] 

 cryst.   s(21) = (     0          1          0      )    f =( -0.3333333 )
                  (     1          0          0      )       (  0.3333334 )
                  (     0          0          1      )       (  0.0000000 )

 cart.    s(21) = ( -0.5000000  0.8660254  0.0000000 )    f =( -0.5000000 )
                  (  0.8660254  0.5000000  0.0000000 )       (  0.2886751 )
                  (  0.0000000  0.0000000  1.0000000 )       (  0.0000000 )


      isym = 22     inv. 180 deg rotation - cryst. axis [2,1,0]  

 cryst.   s(22) = (    -1         -1          0      )    f =( -0.3333334 )
                  (     0          1          0      )       (  0.3333334 )
                  (     0          0          1      )       (  0.0000000 )

 cart.    s(22) = ( -0.5000000 -0.8660254  0.0000000 )    f =( -0.5000000 )
                  ( -0.8660254  0.5000000  0.0000000 )       (  0.2886751 )
                  (  0.0000000  0.0000000  1.0000000 )       (  0.0000000 )


      isym = 23     inv. 180 deg rotation - cryst. axis [0,1,0]  

 cryst.   s(23) = (     1          1          0      )
                  (     0         -1          0      )
                  (     0          0          1      )

 cart.    s(23) = (  0.5000000  0.8660254  0.0000000 )
                  (  0.8660254 -0.5000000  0.0000000 )
                  (  0.0000000  0.0000000  1.0000000 )


      isym = 24     inv. 180 deg rotation - cryst. axis [1,1,0]  

 cryst.   s(24) = (     0         -1          0      )
                  (    -1          0          0      )
                  (     0          0          1      )

 cart.    s(24) = (  0.5000000 -0.8660254  0.0000000 )
                  ( -0.8660254 -0.5000000  0.0000000 )
                  (  0.0000000  0.0000000  1.0000000 )


     point group D_6h(6/mmm)
     there are 12 classes
     the character table:

       E     2C6   2C3   C2    3C2'  3C2'' i     2S3   2S6   s_h   3s_d  3s_v 
A_1g   1.00  1.00  1.00  1.00  1.00  1.00  1.00  1.00  1.00  1.00  1.00  1.00
A_2g   1.00  1.00  1.00  1.00 -1.00 -1.00  1.00  1.00  1.00  1.00 -1.00 -1.00
B_1g   1.00 -1.00  1.00 -1.00  1.00 -1.00  1.00 -1.00  1.00 -1.00  1.00 -1.00
B_2g   1.00 -1.00  1.00 -1.00 -1.00  1.00  1.00 -1.00  1.00 -1.00 -1.00  1.00
E_1g   2.00  1.00 -1.00 -2.00  0.00  0.00  2.00  1.00 -1.00 -2.00  0.00  0.00
E_2g   2.00 -1.00 -1.00  2.00  0.00  0.00  2.00 -1.00 -1.00  2.00  0.00  0.00
A_1u   1.00  1.00  1.00  1.00  1.00  1.00 -1.00 -1.00 -1.00 -1.00 -1.00 -1.00
A_2u   1.00  1.00  1.00  1.00 -1.00 -1.00 -1.00 -1.00 -1.00 -1.00  1.00  1.00
B_1u   1.00 -1.00  1.00 -1.00  1.00 -1.00 -1.00  1.00 -1.00  1.00 -1.00  1.00
B_2u   1.00 -1.00  1.00 -1.00 -1.00  1.00 -1.00  1.00 -1.00  1.00  1.00 -1.00
E_1u   2.00  1.00 -1.00 -2.00  0.00  0.00 -2.00 -1.00  1.00  2.00  0.00  0.00
E_2u   2.00 -1.00 -1.00  2.00  0.00  0.00 -2.00  1.00  1.00 -2.00  0.00  0.00

     the symmetry operations in each class and the name of the first element:

     E        1
          identity                                               
     2C6      5    6
           60 deg rotation - cryst. axis [0,0,1]                 
     2C3      7    8
          120 deg rotation - cryst. axis [0,0,1]                 
     C2       2
          180 deg rotation - cart. axis [0,0,1]                  
     3C2'     4   12   11
          180 deg rotation - cart. axis [1,0,0]                  
     3C2''    3    9   10
          180 deg rotation - cart. axis [0,1,0]                  
     i       13
          inversion                                              
     2S3     17   18
          inv.  60 deg rotation - cryst. axis [0,0,1]            
     2S6     19   20
          inv. 120 deg rotation - cryst. axis [0,0,1]            
     s_h     14
          inv. 180 deg rotation - cart. axis [0,0,1]             
     3s_d    16   24   23
          inv. 180 deg rotation - cart. axis [1,0,0]             
     3s_v    15   21   22
          inv. 180 deg rotation - cart. axis [0,1,0]             

   Cartesian axes

     site n.     atom                  positions (alat units)
         1           C   tau(   1) = (   0.0000000   0.0000000   0.0000000  )
         2           C   tau(   2) = (   0.0000000   0.5773503   0.0000000  )

   Crystallographic axes

     site n.     atom                  positions (cryst. coord.)
         1           C   tau(   1) = (  0.0000000  0.0000000  0.0000000  )
         2           C   tau(   2) = (  0.3333334  0.6666667  0.0000000  )

     number of k points=   127 (tetrahedron method)
                       cart. coord. in units 2pi/alat
        k(    1) = (   0.0000000   0.0000000   0.0000000), wk =   0.0015432
        k(    2) = (   0.0000000   0.0320750   0.0000000), wk =   0.0092593
        k(    3) = (   0.0000000   0.0641500   0.0000000), wk =   0.0092593
        k(    4) = (   0.0000000   0.0962250   0.0000000), wk =   0.0092593
        k(    5) = (   0.0000000   0.1283001   0.0000000), wk =   0.0092593
        k(    6) = (   0.0000000   0.1603751   0.0000000), wk =   0.0092593
        k(    7) = (   0.0000000   0.1924501   0.0000000), wk =   0.0092593
        k(    8) = (   0.0000000   0.2245251   0.0000000), wk =   0.0092593
        k(    9) = (   0.0000000   0.2566001   0.0000000), wk =   0.0092593
        k(   10) = (   0.0000000   0.2886751   0.0000000), wk =   0.0092593
        k(   11) = (   0.0000000   0.3207501   0.0000000), wk =   0.0092593
        k(   12) = (   0.0000000   0.3528252   0.0000000), wk =   0.0092593
        k(   13) = (   0.0000000   0.3849002   0.0000000), wk =   0.0092593
        k(   14) = (   0.0000000   0.4169752   0.0000000), wk =   0.0092593
        k(   15) = (   0.0000000   0.4490502   0.0000000), wk =   0.0092593
        k(   16) = (   0.0000000   0.4811252   0.0000000), wk =   0.0092593
        k(   17) = (   0.0000000   0.5132002   0.0000000), wk =   0.0092593
        k(   18) = (   0.0000000   0.5452753   0.0000000), wk =   0.0092593
        k(   19) = (   0.0000000  -0.5773503   0.0000000), wk =   0.0046296
        k(   20) = (   0.0277778   0.0481125   0.0000000), wk =   0.0092593
        k(   21) = (   0.0277778   0.0801875   0.0000000), wk =   0.0185185
        k(   22) = (   0.0277778   0.1122626   0.0000000), wk =   0.0185185
        k(   23) = (   0.0277778   0.1443376   0.0000000), wk =   0.0185185
        k(   24) = (   0.0277778   0.1764126   0.0000000), wk =   0.0185185
        k(   25) = (   0.0277778   0.2084876   0.0000000), wk =   0.0185185
        k(   26) = (   0.0277778   0.2405626   0.0000000), wk =   0.0185185
        k(   27) = (   0.0277778   0.2726376   0.0000000), wk =   0.0185185
        k(   28) = (   0.0277778   0.3047126   0.0000000), wk =   0.0185185
        k(   29) = (   0.0277778   0.3367877   0.0000000), wk =   0.0185185
        k(   30) = (   0.0277778   0.3688627   0.0000000), wk =   0.0185185
        k(   31) = (   0.0277778   0.4009377   0.0000000), wk =   0.0185185
        k(   32) = (   0.0277778   0.4330127   0.0000000), wk =   0.0185185
        k(   33) = (   0.0277778   0.4650877   0.0000000), wk =   0.0185185
        k(   34) = (   0.0277778   0.4971627   0.0000000), wk =   0.0185185
        k(   35) = (   0.0277778   0.5292377   0.0000000), wk =   0.0185185
        k(   36) = (   0.0277778   0.5613128   0.0000000), wk =   0.0185185
        k(   37) = (   0.0555556   0.0962250   0.0000000), wk =   0.0092593
        k(   38) = (   0.0555556   0.1283001   0.0000000), wk =   0.0185185
        k(   39) = (   0.0555556   0.1603751   0.0000000), wk =   0.0185185
        k(   40) = (   0.0555556   0.1924501   0.0000000), wk =   0.0185185
        k(   41) = (   0.0555556   0.2245251   0.0000000), wk =   0.0185185
        k(   42) = (   0.0555556   0.2566001   0.0000000), wk =   0.0185185
        k(   43) = (   0.0555556   0.2886751   0.0000000), wk =   0.0185185
        k(   44) = (   0.0555556   0.3207501   0.0000000), wk =   0.0185185
        k(   45) = (   0.0555556   0.3528252   0.0000000), wk =   0.0185185
        k(   46) = (   0.0555556   0.3849002   0.0000000), wk =   0.0185185
        k(   47) = (   0.0555556   0.4169752   0.0000000), wk =   0.0185185
        k(   48) = (   0.0555556   0.4490502   0.0000000), wk =   0.0185185
        k(   49) = (   0.0555556   0.4811252   0.0000000), wk =   0.0185185
        k(   50) = (   0.0555556   0.5132002   0.0000000), wk =   0.0185185
        k(   51) = (   0.0555556   0.5452753   0.0000000), wk =   0.0185185
        k(   52) = (   0.0555556   0.5773503   0.0000000), wk =   0.0092593
        k(   53) = (   0.0833333   0.1443376   0.0000000), wk =   0.0092593
        k(   54) = (   0.0833333   0.1764126   0.0000000), wk =   0.0185185
        k(   55) = (   0.0833333   0.2084876   0.0000000), wk =   0.0185185
        k(   56) = (   0.0833333   0.2405626   0.0000000), wk =   0.0185185
        k(   57) = (   0.0833333   0.2726376   0.0000000), wk =   0.0185185
        k(   58) = (   0.0833333   0.3047126   0.0000000), wk =   0.0185185
        k(   59) = (   0.0833333   0.3367877   0.0000000), wk =   0.0185185
        k(   60) = (   0.0833333   0.3688627   0.0000000), wk =   0.0185185
        k(   61) = (   0.0833333   0.4009377   0.0000000), wk =   0.0185185
        k(   62) = (   0.0833333   0.4330127   0.0000000), wk =   0.0185185
        k(   63) = (   0.0833333   0.4650877   0.0000000), wk =   0.0185185
        k(   64) = (   0.0833333   0.4971627   0.0000000), wk =   0.0185185
        k(   65) = (   0.0833333   0.5292377   0.0000000), wk =   0.0185185
        k(   66) = (   0.0833333   0.5613128   0.0000000), wk =   0.0185185
        k(   67) = (   0.1111111   0.1924501   0.0000000), wk =   0.0092593
        k(   68) = (   0.1111111   0.2245251   0.0000000), wk =   0.0185185
        k(   69) = (   0.1111111   0.2566001   0.0000000), wk =   0.0185185
        k(   70) = (   0.1111111   0.2886751   0.0000000), wk =   0.0185185
        k(   71) = (   0.1111111   0.3207501   0.0000000), wk =   0.0185185
        k(   72) = (   0.1111111   0.3528252   0.0000000), wk =   0.0185185
        k(   73) = (   0.1111111   0.3849002   0.0000000), wk =   0.0185185
        k(   74) = (   0.1111111   0.4169752   0.0000000), wk =   0.0185185
        k(   75) = (   0.1111111   0.4490502   0.0000000), wk =   0.0185185
        k(   76) = (   0.1111111   0.4811252   0.0000000), wk =   0.0185185
        k(   77) = (   0.1111111   0.5132002   0.0000000), wk =   0.0185185
        k(   78) = (   0.1111111   0.5452753   0.0000000), wk =   0.0185185
        k(   79) = (   0.1111111   0.5773503   0.0000000), wk =   0.0092593
        k(   80) = (   0.1388889   0.2405626   0.0000000), wk =   0.0092593
        k(   81) = (   0.1388889   0.2726376   0.0000000), wk =   0.0185185
        k(   82) = (   0.1388889   0.3047126   0.0000000), wk =   0.0185185
        k(   83) = (   0.1388889   0.3367877   0.0000000), wk =   0.0185185
        k(   84) = (   0.1388889   0.3688627   0.0000000), wk =   0.0185185
        k(   85) = (   0.1388889   0.4009377   0.0000000), wk =   0.0185185
        k(   86) = (   0.1388889   0.4330127   0.0000000), wk =   0.0185185
        k(   87) = (   0.1388889   0.4650877   0.0000000), wk =   0.0185185
        k(   88) = (   0.1388889   0.4971627   0.0000000), wk =   0.0185185
        k(   89) = (   0.1388889   0.5292377   0.0000000), wk =   0.0185185
        k(   90) = (   0.1388889   0.5613128   0.0000000), wk =   0.0185185
        k(   91) = (   0.1666667   0.2886751   0.0000000), wk =   0.0092593
        k(   92) = (   0.1666667   0.3207501   0.0000000), wk =   0.0185185
        k(   93) = (   0.1666667   0.3528252   0.0000000), wk =   0.0185185
        k(   94) = (   0.1666667   0.3849002   0.0000000), wk =   0.0185185
        k(   95) = (   0.1666667   0.4169752   0.0000000), wk =   0.0185185
        k(   96) = (   0.1666667   0.4490502   0.0000000), wk =   0.0185185
        k(   97) = (   0.1666667   0.4811252   0.0000000), wk =   0.0185185
        k(   98) = (   0.1666667   0.5132002   0.0000000), wk =   0.0185185
        k(   99) = (   0.1666667   0.5452753   0.0000000), wk =   0.0185185
        k(  100) = (   0.1666667   0.5773503   0.0000000), wk =   0.0092593
        k(  101) = (   0.1944444   0.3367877   0.0000000), wk =   0.0092593
        k(  102) = (   0.1944444   0.3688627   0.0000000), wk =   0.0185185
        k(  103) = (   0.1944444   0.4009377   0.0000000), wk =   0.0185185
        k(  104) = (   0.1944444   0.4330127   0.0000000), wk =   0.0185185
        k(  105) = (   0.1944444   0.4650877   0.0000000), wk =   0.0185185
        k(  106) = (   0.1944444   0.4971627   0.0000000), wk =   0.0185185
        k(  107) = (   0.1944444   0.5292377   0.0000000), wk =   0.0185185
        k(  108) = (   0.1944444   0.5613128   0.0000000), wk =   0.0185185
        k(  109) = (   0.2222222   0.3849002   0.0000000), wk =   0.0092593
        k(  110) = (   0.2222222   0.4169752   0.0000000), wk =   0.0185185
        k(  111) = (   0.2222222   0.4490502   0.0000000), wk =   0.0185185
        k(  112) = (   0.2222222   0.4811252   0.0000000), wk =   0.0185185
        k(  113) = (   0.2222222   0.5132002   0.0000000), wk =   0.0185185
        k(  114) = (   0.2222222   0.5452753   0.0000000), wk =   0.0185185
        k(  115) = (   0.2222222   0.5773503   0.0000000), wk =   0.0092593
        k(  116) = (   0.2500000   0.4330127   0.0000000), wk =   0.0092593
        k(  117) = (   0.2500000   0.4650877   0.0000000), wk =   0.0185185
        k(  118) = (   0.2500000   0.4971627   0.0000000), wk =   0.0185185
        k(  119) = (   0.2500000   0.5292377   0.0000000), wk =   0.0185185
        k(  120) = (   0.2500000   0.5613128   0.0000000), wk =   0.0185185
        k(  121) = (   0.2777778   0.4811252   0.0000000), wk =   0.0092593
        k(  122) = (   0.2777778   0.5132002   0.0000000), wk =   0.0185185
        k(  123) = (   0.2777778   0.5452753   0.0000000), wk =   0.0185185
        k(  124) = (   0.2777778   0.5773503   0.0000000), wk =   0.0092593
        k(  125) = (   0.3055556   0.5292377   0.0000000), wk =   0.0092593
        k(  126) = (   0.3055556   0.5613128   0.0000000), wk =   0.0185185
        k(  127) = (   0.3333333   0.5773503   0.0000000), wk =   0.0030864

                       cryst. coord.
        k(    1) = (   0.0000000   0.0000000   0.0000000), wk =   0.0015432
        k(    2) = (   0.0000000   0.0277778   0.0000000), wk =   0.0092593
        k(    3) = (   0.0000000   0.0555556   0.0000000), wk =   0.0092593
        k(    4) = (   0.0000000   0.0833333   0.0000000), wk =   0.0092593
        k(    5) = (   0.0000000   0.1111111   0.0000000), wk =   0.0092593
        k(    6) = (   0.0000000   0.1388889   0.0000000), wk =   0.0092593
        k(    7) = (   0.0000000   0.1666667   0.0000000), wk =   0.0092593
        k(    8) = (   0.0000000   0.1944444   0.0000000), wk =   0.0092593
        k(    9) = (   0.0000000   0.2222222   0.0000000), wk =   0.0092593
        k(   10) = (   0.0000000   0.2500000   0.0000000), wk =   0.0092593
        k(   11) = (   0.0000000   0.2777778   0.0000000), wk =   0.0092593
        k(   12) = (   0.0000000   0.3055556   0.0000000), wk =   0.0092593
        k(   13) = (   0.0000000   0.3333333   0.0000000), wk =   0.0092593
        k(   14) = (   0.0000000   0.3611111   0.0000000), wk =   0.0092593
        k(   15) = (   0.0000000   0.3888889   0.0000000), wk =   0.0092593
        k(   16) = (   0.0000000   0.4166667   0.0000000), wk =   0.0092593
        k(   17) = (   0.0000000   0.4444444   0.0000000), wk =   0.0092593
        k(   18) = (   0.0000000   0.4722222   0.0000000), wk =   0.0092593
        k(   19) = (   0.0000000  -0.5000000   0.0000000), wk =   0.0046296
        k(   20) = (   0.0277778   0.0277778   0.0000000), wk =   0.0092593
        k(   21) = (   0.0277778   0.0555556   0.0000000), wk =   0.0185185
        k(   22) = (   0.0277778   0.0833333   0.0000000), wk =   0.0185185
        k(   23) = (   0.0277778   0.1111111   0.0000000), wk =   0.0185185
        k(   24) = (   0.0277778   0.1388889   0.0000000), wk =   0.0185185
        k(   25) = (   0.0277778   0.1666667   0.0000000), wk =   0.0185185
        k(   26) = (   0.0277778   0.1944444   0.0000000), wk =   0.0185185
        k(   27) = (   0.0277778   0.2222222   0.0000000), wk =   0.0185185
        k(   28) = (   0.0277778   0.2500000   0.0000000), wk =   0.0185185
        k(   29) = (   0.0277778   0.2777778   0.0000000), wk =   0.0185185
        k(   30) = (   0.0277778   0.3055556   0.0000000), wk =   0.0185185
        k(   31) = (   0.0277778   0.3333333   0.0000000), wk =   0.0185185
        k(   32) = (   0.0277778   0.3611111   0.0000000), wk =   0.0185185
        k(   33) = (   0.0277778   0.3888889   0.0000000), wk =   0.0185185
        k(   34) = (   0.0277778   0.4166667   0.0000000), wk =   0.0185185
        k(   35) = (   0.0277778   0.4444444   0.0000000), wk =   0.0185185
        k(   36) = (   0.0277778   0.4722222   0.0000000), wk =   0.0185185
        k(   37) = (   0.0555556   0.0555556   0.0000000), wk =   0.0092593
        k(   38) = (   0.0555556   0.0833333   0.0000000), wk =   0.0185185
        k(   39) = (   0.0555556   0.1111111   0.0000000), wk =   0.0185185
        k(   40) = (   0.0555556   0.1388889   0.0000000), wk =   0.0185185
        k(   41) = (   0.0555556   0.1666667   0.0000000), wk =   0.0185185
        k(   42) = (   0.0555556   0.1944444   0.0000000), wk =   0.0185185
        k(   43) = (   0.0555556   0.2222222   0.0000000), wk =   0.0185185
        k(   44) = (   0.0555556   0.2500000   0.0000000), wk =   0.0185185
        k(   45) = (   0.0555556   0.2777778   0.0000000), wk =   0.0185185
        k(   46) = (   0.0555556   0.3055556   0.0000000), wk =   0.0185185
        k(   47) = (   0.0555556   0.3333333   0.0000000), wk =   0.0185185
        k(   48) = (   0.0555556   0.3611111   0.0000000), wk =   0.0185185
        k(   49) = (   0.0555556   0.3888889   0.0000000), wk =   0.0185185
        k(   50) = (   0.0555556   0.4166667   0.0000000), wk =   0.0185185
        k(   51) = (   0.0555556   0.4444444   0.0000000), wk =   0.0185185
        k(   52) = (   0.0555556   0.4722222   0.0000000), wk =   0.0092593
        k(   53) = (   0.0833333   0.0833333   0.0000000), wk =   0.0092593
        k(   54) = (   0.0833333   0.1111111   0.0000000), wk =   0.0185185
        k(   55) = (   0.0833333   0.1388889   0.0000000), wk =   0.0185185
        k(   56) = (   0.0833333   0.1666667   0.0000000), wk =   0.0185185
        k(   57) = (   0.0833333   0.1944444   0.0000000), wk =   0.0185185
        k(   58) = (   0.0833333   0.2222222   0.0000000), wk =   0.0185185
        k(   59) = (   0.0833333   0.2500000   0.0000000), wk =   0.0185185
        k(   60) = (   0.0833333   0.2777778   0.0000000), wk =   0.0185185
        k(   61) = (   0.0833333   0.3055556   0.0000000), wk =   0.0185185
        k(   62) = (   0.0833333   0.3333333   0.0000000), wk =   0.0185185
        k(   63) = (   0.0833333   0.3611111   0.0000000), wk =   0.0185185
        k(   64) = (   0.0833333   0.3888889   0.0000000), wk =   0.0185185
        k(   65) = (   0.0833333   0.4166667   0.0000000), wk =   0.0185185
        k(   66) = (   0.0833333   0.4444444   0.0000000), wk =   0.0185185
        k(   67) = (   0.1111111   0.1111111   0.0000000), wk =   0.0092593
        k(   68) = (   0.1111111   0.1388889   0.0000000), wk =   0.0185185
        k(   69) = (   0.1111111   0.1666667   0.0000000), wk =   0.0185185
        k(   70) = (   0.1111111   0.1944444   0.0000000), wk =   0.0185185
        k(   71) = (   0.1111111   0.2222222   0.0000000), wk =   0.0185185
        k(   72) = (   0.1111111   0.2500000   0.0000000), wk =   0.0185185
        k(   73) = (   0.1111111   0.2777778   0.0000000), wk =   0.0185185
        k(   74) = (   0.1111111   0.3055556   0.0000000), wk =   0.0185185
        k(   75) = (   0.1111111   0.3333333   0.0000000), wk =   0.0185185
        k(   76) = (   0.1111111   0.3611111   0.0000000), wk =   0.0185185
        k(   77) = (   0.1111111   0.3888889   0.0000000), wk =   0.0185185
        k(   78) = (   0.1111111   0.4166667   0.0000000), wk =   0.0185185
        k(   79) = (   0.1111111   0.4444444   0.0000000), wk =   0.0092593
        k(   80) = (   0.1388889   0.1388889   0.0000000), wk =   0.0092593
        k(   81) = (   0.1388889   0.1666667   0.0000000), wk =   0.0185185
        k(   82) = (   0.1388889   0.1944444   0.0000000), wk =   0.0185185
        k(   83) = (   0.1388889   0.2222222   0.0000000), wk =   0.0185185
        k(   84) = (   0.1388889   0.2500000   0.0000000), wk =   0.0185185
        k(   85) = (   0.1388889   0.2777778   0.0000000), wk =   0.0185185
        k(   86) = (   0.1388889   0.3055556   0.0000000), wk =   0.0185185
        k(   87) = (   0.1388889   0.3333333   0.0000000), wk =   0.0185185
        k(   88) = (   0.1388889   0.3611111   0.0000000), wk =   0.0185185
        k(   89) = (   0.1388889   0.3888889   0.0000000), wk =   0.0185185
        k(   90) = (   0.1388889   0.4166667   0.0000000), wk =   0.0185185
        k(   91) = (   0.1666667   0.1666667   0.0000000), wk =   0.0092593
        k(   92) = (   0.1666667   0.1944444   0.0000000), wk =   0.0185185
        k(   93) = (   0.1666667   0.2222222   0.0000000), wk =   0.0185185
        k(   94) = (   0.1666667   0.2500000   0.0000000), wk =   0.0185185
        k(   95) = (   0.1666667   0.2777778   0.0000000), wk =   0.0185185
        k(   96) = (   0.1666667   0.3055556   0.0000000), wk =   0.0185185
        k(   97) = (   0.1666667   0.3333333   0.0000000), wk =   0.0185185
        k(   98) = (   0.1666667   0.3611111   0.0000000), wk =   0.0185185
        k(   99) = (   0.1666667   0.3888889   0.0000000), wk =   0.0185185
        k(  100) = (   0.1666667   0.4166667   0.0000000), wk =   0.0092593
        k(  101) = (   0.1944444   0.1944444   0.0000000), wk =   0.0092593
        k(  102) = (   0.1944444   0.2222222   0.0000000), wk =   0.0185185
        k(  103) = (   0.1944444   0.2500000   0.0000000), wk =   0.0185185
        k(  104) = (   0.1944444   0.2777778   0.0000000), wk =   0.0185185
        k(  105) = (   0.1944444   0.3055556   0.0000000), wk =   0.0185185
        k(  106) = (   0.1944444   0.3333333   0.0000000), wk =   0.0185185
        k(  107) = (   0.1944444   0.3611111   0.0000000), wk =   0.0185185
        k(  108) = (   0.1944444   0.3888889   0.0000000), wk =   0.0185185
        k(  109) = (   0.2222222   0.2222222   0.0000000), wk =   0.0092593
        k(  110) = (   0.2222222   0.2500000   0.0000000), wk =   0.0185185
        k(  111) = (   0.2222222   0.2777778   0.0000000), wk =   0.0185185
        k(  112) = (   0.2222222   0.3055556   0.0000000), wk =   0.0185185
        k(  113) = (   0.2222222   0.3333333   0.0000000), wk =   0.0185185
        k(  114) = (   0.2222222   0.3611111   0.0000000), wk =   0.0185185
        k(  115) = (   0.2222222   0.3888889   0.0000000), wk =   0.0092593
        k(  116) = (   0.2500000   0.2500000   0.0000000), wk =   0.0092593
        k(  117) = (   0.2500000   0.2777778   0.0000000), wk =   0.0185185
        k(  118) = (   0.2500000   0.3055556   0.0000000), wk =   0.0185185
        k(  119) = (   0.2500000   0.3333333   0.0000000), wk =   0.0185185
        k(  120) = (   0.2500000   0.3611111   0.0000000), wk =   0.0185185
        k(  121) = (   0.2777778   0.2777778   0.0000000), wk =   0.0092593
        k(  122) = (   0.2777778   0.3055556   0.0000000), wk =   0.0185185
        k(  123) = (   0.2777778   0.3333333   0.0000000), wk =   0.0185185
        k(  124) = (   0.2777778   0.3611111   0.0000000), wk =   0.0092593
        k(  125) = (   0.3055556   0.3055556   0.0000000), wk =   0.0092593
        k(  126) = (   0.3055556   0.3333333   0.0000000), wk =   0.0185185
        k(  127) = (   0.3333333   0.3333333   0.0000000), wk =   0.0030864

     Dense  grid:    34703 G-vectors     FFT dimensions: (  30,  30,  90)

     Smooth grid:     8875 G-vectors     FFT dimensions: (  24,  24,  60)

     Dynamical RAM for                 wfc:       0.13 MB

     Dynamical RAM for     wfc (w. buffer):       0.13 MB

     Dynamical RAM for           str. fact:       0.53 MB

     Dynamical RAM for           local pot:       0.00 MB

     Dynamical RAM for          nlocal pot:       0.27 MB

     Dynamical RAM for                qrad:       0.46 MB

     Dynamical RAM for          rho,v,vnew:       3.44 MB

     Dynamical RAM for           G-vectors:       2.05 MB

     Dynamical RAM for          h,s,v(r/c):       0.01 MB

     Dynamical RAM for          <psi|beta>:       0.00 MB

     Dynamical RAM for                 psi:       0.27 MB

     Dynamical RAM for                hpsi:       0.27 MB

     Dynamical RAM for                spsi:       0.27 MB

     Dynamical RAM for      wfcinit/wfcrot:       0.27 MB

     Dynamical RAM for           addusdens:      23.83 MB

     Estimated static dynamical RAM per process >      11.04 MB

     Estimated max dynamical RAM per process >      34.87 MB

     Check: negative core charge=   -0.000002

     The potential is recalculated from file :
     ./tmp/graphene/graphene.save/charge-density


     negative rho (up, down):  1.175E-06 0.000E+00
     Starting wfcs are    8 randomized atomic wfcs

     Band Structure Calculation
     Davidson diagonalization with overlap

     Computing kpt #:     1  of   127
     total cpu time spent up to now is        0.8 secs

     Computing kpt #:     2  of   127
     total cpu time spent up to now is        1.2 secs

     Computing kpt #:     3  of   127
     total cpu time spent up to now is        1.5 secs

     Computing kpt #:     4  of   127
     total cpu time spent up to now is        1.9 secs

     Computing kpt #:     5  of   127
     total cpu time spent up to now is        2.3 secs

     Computing kpt #:     6  of   127
     total cpu time spent up to now is        2.7 secs

     Computing kpt #:     7  of   127
     c_bands:  1 eigenvalues not converged
     total cpu time spent up to now is        3.2 secs

     Computing kpt #:     8  of   127
     total cpu time spent up to now is        3.5 secs

     Computing kpt #:     9  of   127
     total cpu time spent up to now is        3.8 secs

     Computing kpt #:    10  of   127
     total cpu time spent up to now is        4.1 secs

     Computing kpt #:    11  of   127
     total cpu time spent up to now is        4.4 secs

     Computing kpt #:    12  of   127
     total cpu time spent up to now is        4.7 secs

     Computing kpt #:    13  of   127
     total cpu time spent up to now is        5.0 secs

     Computing kpt #:    14  of   127
     total cpu time spent up to now is        5.3 secs

     Computing kpt #:    15  of   127
     total cpu time spent up to now is        5.6 secs

     Computing kpt #:    16  of   127
     total cpu time spent up to now is        5.9 secs

     Computing kpt #:    17  of   127
     total cpu time spent up to now is        6.3 secs

     Computing kpt #:    18  of   127
     total cpu time spent up to now is        6.6 secs

     Computing kpt #:    19  of   127
     total cpu time spent up to now is        6.9 secs

     Computing kpt #:    20  of   127
     total cpu time spent up to now is        7.2 secs

     Computing kpt #:    21  of   127
     c_bands:  1 eigenvalues not converged
     total cpu time spent up to now is        7.7 secs

     Computing kpt #:    22  of   127
     total cpu time spent up to now is        8.1 secs

     Computing kpt #:    23  of   127
     total cpu time spent up to now is        8.5 secs

     Computing kpt #:    24  of   127
     total cpu time spent up to now is        8.9 secs

     Computing kpt #:    25  of   127
     total cpu time spent up to now is        9.3 secs

     Computing kpt #:    26  of   127
     total cpu time spent up to now is        9.6 secs

     Computing kpt #:    27  of   127
     total cpu time spent up to now is        9.9 secs

     Computing kpt #:    28  of   127
     total cpu time spent up to now is       10.2 secs

     Computing kpt #:    29  of   127
     total cpu time spent up to now is       10.5 secs

     Computing kpt #:    30  of   127
     total cpu time spent up to now is       10.8 secs

     Computing kpt #:    31  of   127
     total cpu time spent up to now is       11.1 secs

     Computing kpt #:    32  of   127
     total cpu time spent up to now is       11.4 secs

     Computing kpt #:    33  of   127
     total cpu time spent up to now is       11.7 secs

     Computing kpt #:    34  of   127
     total cpu time spent up to now is       12.0 secs

     Computing kpt #:    35  of   127
     total cpu time spent up to now is       12.3 secs

     Computing kpt #:    36  of   127
     total cpu time spent up to now is       12.6 secs

     Computing kpt #:    37  of   127
     c_bands:  1 eigenvalues not converged
     total cpu time spent up to now is       13.1 secs

     Computing kpt #:    38  of   127
     total cpu time spent up to now is       13.4 secs

     Computing kpt #:    39  of   127
     total cpu time spent up to now is       13.9 secs

     Computing kpt #:    40  of   127
     total cpu time spent up to now is       14.2 secs

     Computing kpt #:    41  of   127
     total cpu time spent up to now is       14.6 secs

     Computing kpt #:    42  of   127
     total cpu time spent up to now is       14.9 secs

     Computing kpt #:    43  of   127
     total cpu time spent up to now is       15.2 secs

     Computing kpt #:    44  of   127
     total cpu time spent up to now is       15.5 secs

     Computing kpt #:    45  of   127
     total cpu time spent up to now is       15.8 secs

     Computing kpt #:    46  of   127
     total cpu time spent up to now is       16.1 secs

     Computing kpt #:    47  of   127
     total cpu time spent up to now is       16.4 secs

     Computing kpt #:    48  of   127
     total cpu time spent up to now is       16.7 secs

     Computing kpt #:    49  of   127
     total cpu time spent up to now is       17.0 secs

     Computing kpt #:    50  of   127
     total cpu time spent up to now is       17.4 secs

     Computing kpt #:    51  of   127
     total cpu time spent up to now is       17.7 secs

     Computing kpt #:    52  of   127
     total cpu time spent up to now is       18.0 secs

     Computing kpt #:    53  of   127
     total cpu time spent up to now is       18.4 secs

     Computing kpt #:    54  of   127
     total cpu time spent up to now is       18.9 secs

     Computing kpt #:    55  of   127
     total cpu time spent up to now is       19.2 secs

     Computing kpt #:    56  of   127
     total cpu time spent up to now is       19.5 secs

     Computing kpt #:    57  of   127
     total cpu time spent up to now is       19.8 secs

     Computing kpt #:    58  of   127
     total cpu time spent up to now is       20.1 secs

     Computing kpt #:    59  of   127
     total cpu time spent up to now is       20.5 secs

     Computing kpt #:    60  of   127
     total cpu time spent up to now is       20.9 secs

     Computing kpt #:    61  of   127
     total cpu time spent up to now is       21.4 secs

     Computing kpt #:    62  of   127
     total cpu time spent up to now is       21.8 secs

     Computing kpt #:    63  of   127
     total cpu time spent up to now is       22.2 secs

     Computing kpt #:    64  of   127
     total cpu time spent up to now is       22.5 secs

     Computing kpt #:    65  of   127
     c_bands:  1 eigenvalues not converged
     total cpu time spent up to now is       22.9 secs

     Computing kpt #:    66  of   127
     total cpu time spent up to now is       23.2 secs

     Computing kpt #:    67  of   127
     total cpu time spent up to now is       23.6 secs

     Computing kpt #:    68  of   127
     total cpu time spent up to now is       24.0 secs

     Computing kpt #:    69  of   127
     total cpu time spent up to now is       24.3 secs

     Computing kpt #:    70  of   127
     total cpu time spent up to now is       24.6 secs

     Computing kpt #:    71  of   127
     total cpu time spent up to now is       25.3 secs

     Computing kpt #:    72  of   127
     total cpu time spent up to now is       25.7 secs

     Computing kpt #:    73  of   127
     total cpu time spent up to now is       26.2 secs

     Computing kpt #:    74  of   127
     total cpu time spent up to now is       26.7 secs

     Computing kpt #:    75  of   127
     total cpu time spent up to now is       27.0 secs

     Computing kpt #:    76  of   127
     total cpu time spent up to now is       27.4 secs

     Computing kpt #:    77  of   127
     total cpu time spent up to now is       27.9 secs

     Computing kpt #:    78  of   127
     total cpu time spent up to now is       28.2 secs

     Computing kpt #:    79  of   127
     total cpu time spent up to now is       28.5 secs

     Computing kpt #:    80  of   127
     total cpu time spent up to now is       28.9 secs

     Computing kpt #:    81  of   127
     total cpu time spent up to now is       29.3 secs

     Computing kpt #:    82  of   127
     total cpu time spent up to now is       29.6 secs

     Computing kpt #:    83  of   127
     total cpu time spent up to now is       30.0 secs

     Computing kpt #:    84  of   127
     total cpu time spent up to now is       30.3 secs

     Computing kpt #:    85  of   127
     total cpu time spent up to now is       30.6 secs

     Computing kpt #:    86  of   127
     total cpu time spent up to now is       30.9 secs

     Computing kpt #:    87  of   127
     total cpu time spent up to now is       31.3 secs

     Computing kpt #:    88  of   127
     total cpu time spent up to now is       31.6 secs

     Computing kpt #:    89  of   127
     total cpu time spent up to now is       32.1 secs

     Computing kpt #:    90  of   127
     total cpu time spent up to now is       32.4 secs

     Computing kpt #:    91  of   127
     total cpu time spent up to now is       32.7 secs

     Computing kpt #:    92  of   127
     total cpu time spent up to now is       33.2 secs

     Computing kpt #:    93  of   127
     total cpu time spent up to now is       33.5 secs

     Computing kpt #:    94  of   127
     total cpu time spent up to now is       33.9 secs

     Computing kpt #:    95  of   127
     total cpu time spent up to now is       34.3 secs

     Computing kpt #:    96  of   127
     total cpu time spent up to now is       34.6 secs

     Computing kpt #:    97  of   127
     total cpu time spent up to now is       35.0 secs

     Computing kpt #:    98  of   127
     total cpu time spent up to now is       35.4 secs

     Computing kpt #:    99  of   127
     total cpu time spent up to now is       35.8 secs

     Computing kpt #:   100  of   127
     total cpu time spent up to now is       36.2 secs

     Computing kpt #:   101  of   127
     total cpu time spent up to now is       36.7 secs

     Computing kpt #:   102  of   127
     total cpu time spent up to now is       37.3 secs

     Computing kpt #:   103  of   127
     total cpu time spent up to now is       37.8 secs

     Computing kpt #:   104  of   127
     total cpu time spent up to now is       38.3 secs

     Computing kpt #:   105  of   127
     total cpu time spent up to now is       38.7 secs

     Computing kpt #:   106  of   127
     total cpu time spent up to now is       39.1 secs

     Computing kpt #:   107  of   127
     total cpu time spent up to now is       39.6 secs

     Computing kpt #:   108  of   127
     total cpu time spent up to now is       40.0 secs

     Computing kpt #:   109  of   127
     total cpu time spent up to now is       40.5 secs

     Computing kpt #:   110  of   127
     total cpu time spent up to now is       40.9 secs

     Computing kpt #:   111  of   127
     total cpu time spent up to now is       41.3 secs

     Computing kpt #:   112  of   127
     total cpu time spent up to now is       41.7 secs

     Computing kpt #:   113  of   127
     total cpu time spent up to now is       42.1 secs

     Computing kpt #:   114  of   127
     total cpu time spent up to now is       42.5 secs

     Computing kpt #:   115  of   127
     total cpu time spent up to now is       42.9 secs

     Computing kpt #:   116  of   127
     total cpu time spent up to now is       43.3 secs

     Computing kpt #:   117  of   127
     total cpu time spent up to now is       43.8 secs

     Computing kpt #:   118  of   127
     total cpu time spent up to now is       44.2 secs

     Computing kpt #:   119  of   127
     total cpu time spent up to now is       44.6 secs

     Computing kpt #:   120  of   127
     total cpu time spent up to now is       45.1 secs

     Computing kpt #:   121  of   127
     c_bands:  1 eigenvalues not converged
     total cpu time spent up to now is       45.5 secs

     Computing kpt #:   122  of   127
     total cpu time spent up to now is       46.0 secs

     Computing kpt #:   123  of   127
     total cpu time spent up to now is       46.4 secs

     Computing kpt #:   124  of   127
     total cpu time spent up to now is       46.9 secs

     Computing kpt #:   125  of   127
     total cpu time spent up to now is       47.4 secs

     Computing kpt #:   126  of   127
     total cpu time spent up to now is       47.9 secs

     Computing kpt #:   127  of   127
     total cpu time spent up to now is       48.3 secs

     ethr =  1.25E-10,  avg # of iterations = 71.3

     total cpu time spent up to now is       48.7 secs

     End of band structure calculation

          k = 0.0000 0.0000 0.0000 (  1119 PWs)   bands (ev):

   -18.7351  -7.0501  -2.3093  -2.3093   3.6995   7.0559   9.1109   9.1109

     occupation numbers 
     1.0000   1.0000   1.0000   1.0000   0.0000   0.0000   0.0000   0.0000

          k = 0.0000 0.0321 0.0000 (  1123 PWs)   bands (ev):

   -18.7168  -7.0279  -2.3837  -2.3503   3.7245   7.0798   9.1131   9.1916

     occupation numbers 
     1.0000   1.0000   1.0000   1.0000   0.0000   0.0000   0.0000   0.0000

          k = 0.0000 0.0642 0.0000 (  1110 PWs)   bands (ev):

   -18.6618  -6.9614  -2.6016  -2.4687   3.7993   7.1513   9.1234   9.4306

     occupation numbers 
     1.0000   1.0000   1.0000   1.0000   0.0000   0.0000   0.0000   0.0000

          k = 0.0000 0.0962 0.0000 (  1104 PWs)   bands (ev):

   -18.5704  -6.8507  -2.9492  -2.6542   3.9242   7.2704   9.1409   9.6076

     occupation numbers 
     1.0000   1.0000   1.0000   1.0000   0.0000   0.0000   0.0000   0.0000

          k = 0.0000 0.1283 0.0000 (  1102 PWs)   bands (ev):

   -18.4425  -6.6961  -3.4069  -2.8918   4.0989   7.4364   9.1562   9.7852

     occupation numbers 
     1.0000   1.0000   1.0000   1.0000   0.0000   0.0000   0.0000   0.0000

          k = 0.0000 0.1604 0.0000 (  1104 PWs)   bands (ev):

   -18.2782  -6.4982  -3.9537  -3.1656   4.3236   7.6486   9.1563  10.0028

     occupation numbers 
     1.0000   1.0000   1.0000   1.0000   0.0000   0.0000   0.0000   0.0000

          k = 0.0000 0.1925 0.0000 (  1112 PWs)   bands (ev):

   -18.0780  -6.2576  -4.5689  -3.4605   4.5982   7.9048   9.1333  10.1867

     occupation numbers 
     1.0000   1.0000   1.0000   1.0000   0.0000   0.0000   0.0000   0.0000

          k = 0.0000 0.2245 0.0000 (  1106 PWs)   bands (ev):

   -17.8418  -5.9751  -5.2342  -3.7637   4.9226   8.1974   9.0857   9.5423

     occupation numbers 
     1.0000   1.0000   1.0000   1.0000   0.0000   0.0000   0.0000   0.0000

          k = 0.0000 0.2566 0.0000 (  1106 PWs)   bands (ev):

   -17.5702  -5.9343  -5.6520  -4.0645   5.2966   8.4441   8.9370   9.0168

     occupation numbers 
     1.0000   1.0000   1.0000   1.0000   0.0000   0.0000   0.0000   0.0000

          k = 0.0000 0.2887 0.0000 (  1100 PWs)   bands (ev):

   -17.2634  -6.6565  -5.2899  -4.3543   5.7199   7.9868   8.9334   9.0418

     occupation numbers 
     1.0000   1.0000   1.0000   1.0000   0.0000   0.0000   0.0000   0.0000

          k = 0.0000 0.3208 0.0000 (  1096 PWs)   bands (ev):

   -16.9219  -7.3900  -4.8910  -4.6265   6.1923   7.2365   8.8424   9.4580

     occupation numbers 
     1.0000   1.0000   1.0000   1.0000   0.0000   0.0000   0.0000   0.0000

          k = 0.0000 0.3528 0.0000 (  1108 PWs)   bands (ev):

   -16.5465  -8.1263  -4.8760  -4.4585   6.4547   6.7131   8.7502   9.9355

     occupation numbers 
     1.0000   1.0000   1.0000   1.0000   0.0000   0.0000   0.0000   0.0000

          k = 0.0000 0.3849 0.0000 (  1106 PWs)   bands (ev):

   -16.1377  -8.8584  -5.0987  -3.9972   5.6700   7.2809   8.6636  10.4575

     occupation numbers 
     1.0000   1.0000   1.0000   1.0000   0.0000   0.0000   0.0000   0.0000

          k = 0.0000 0.4170 0.0000 (  1102 PWs)   bands (ev):

   -15.6968  -9.5801  -5.2914  -3.5145   4.8998   7.8897   8.5921  11.0182

     occupation numbers 
     1.0000   1.0000   1.0000   1.0000   0.0000   0.0000   0.0000   0.0000

          k = 0.0000 0.4491 0.0000 (  1098 PWs)   bands (ev):

   -15.2254 -10.2860  -5.4519  -3.0225   4.1637   8.4125   8.6653  11.6120

     occupation numbers 
     1.0000   1.0000   1.0000   1.0000   0.0000   0.0000   0.0000   0.0000

          k = 0.0000 0.4811 0.0000 (  1104 PWs)   bands (ev):

   -14.7264 -10.9702  -5.5783  -2.5420   3.4880   8.4252   9.3086  12.2309

     occupation numbers 
     1.0000   1.0000   1.0000   1.0000   0.0000   0.0000   0.0000   0.0000

          k = 0.0000 0.5132 0.0000 (  1106 PWs)   bands (ev):

   -14.2071 -11.6232  -5.6695  -2.1106   2.9143   8.3905  10.0598  12.8593

     occupation numbers 
     1.0000   1.0000   1.0000   1.0000   0.0000   0.0000   0.0000   0.0000

          k = 0.0000 0.5453 0.0000 (  1102 PWs)   bands (ev):

   -13.6943 -12.2168  -5.7246  -1.7921   2.5093   8.3671  10.8590  12.5802

     occupation numbers 
     1.0000   1.0000   1.0000   1.0000   0.0000   0.0000   0.0000   0.0000

          k = 0.0000-0.5774 0.0000 (  1092 PWs)   bands (ev):

   -13.3812 -12.5568  -5.7430  -1.6709   2.3592   8.3592  11.6563  11.7473

     occupation numbers 
     1.0000   1.0000   1.0000   1.0000   0.0000   0.0000   0.0000   0.0000

          k = 0.0278 0.0481 0.0000 (  1111 PWs)   bands (ev):

   -18.6802  -6.9835  -2.5278  -2.4319   3.7744   7.1275   9.1242   9.3469

     occupation numbers 
     1.0000   1.0000   1.0000   1.0000   0.0000   0.0000   0.0000   0.0000

          k = 0.0278 0.0802 0.0000 (  1109 PWs)   bands (ev):

   -18.6070  -6.8949  -2.8055  -2.5890   3.8742   7.2228   9.1497   9.5557

     occupation numbers 
     1.0000   1.0000   1.0000   1.0000   0.0000   0.0000   0.0000   0.0000

          k = 0.0278 0.1123 0.0000 (  1103 PWs)   bands (ev):

   -18.4973  -6.7623  -3.2018  -2.8070   4.0240   7.3654   9.1804   9.7135

     occupation numbers 
     1.0000   1.0000   1.0000   1.0000   0.0000   0.0000   0.0000   0.0000

          k = 0.0278 0.1443 0.0000 (  1104 PWs)   bands (ev):

   -18.3512  -6.5861  -3.6977  -3.0691   4.2238   7.5546   9.2024   9.9103

     occupation numbers 
     1.0000   1.0000   1.0000   1.0000   0.0000   0.0000   0.0000   0.0000

          k = 0.0278 0.1764 0.0000 (  1106 PWs)   bands (ev):

   -18.1689  -6.3668  -4.2730  -3.3593   4.4735   7.7893   9.2029  10.1482

     occupation numbers 
     1.0000   1.0000   1.0000   1.0000   0.0000   0.0000   0.0000   0.0000

          k = 0.0278 0.2085 0.0000 (  1108 PWs)   bands (ev):

   -17.9507  -6.1052  -4.9085  -3.6632   4.7730   8.0656   9.1763   9.8353

     occupation numbers 
     1.0000   1.0000   1.0000   1.0000   0.0000   0.0000   0.0000   0.0000

          k = 0.0278 0.2406 0.0000 (  1100 PWs)   bands (ev):

   -17.6968  -5.8023  -5.5875  -3.9690   5.1222   8.3629   9.1238   9.1849

     occupation numbers 
     1.0000   1.0000   1.0000   1.0000   0.0000   0.0000   0.0000   0.0000

          k = 0.0278 0.2726 0.0000 (  1104 PWs)   bands (ev):

   -17.4076  -6.2957  -5.4596  -4.2673   5.5209   8.3011   8.8934   9.0511

     occupation numbers 
     1.0000   1.0000   1.0000   1.0000   0.0000   0.0000   0.0000   0.0000

          k = 0.0278 0.3047 0.0000 (  1098 PWs)   bands (ev):

   -17.0835  -7.0213  -5.0788  -4.5506   5.9689   7.6027   8.9659   9.2506

     occupation numbers 
     1.0000   1.0000   1.0000   1.0000   0.0000   0.0000   0.0000   0.0000

          k = 0.0278 0.3368 0.0000 (  1098 PWs)   bands (ev):

   -16.7250  -7.7545  -4.8131  -4.6628   6.4657   6.8333   8.8754   9.7023

     occupation numbers 
     1.0000   1.0000   1.0000   1.0000   0.0000   0.0000   0.0000   0.0000

          k = 0.0278 0.3689 0.0000 (  1102 PWs)   bands (ev):

   -16.3329  -8.4874  -5.0504  -4.2153   6.0505   7.0104   8.7862  10.2022

     occupation numbers 
     1.0000   1.0000   1.0000   1.0000   0.0000   0.0000   0.0000   0.0000

          k = 0.0278 0.4009 0.0000 (  1101 PWs)   bands (ev):

   -15.9081  -9.2134  -5.2589  -3.7423   5.2735   7.6008   8.7050  10.7426

     occupation numbers 
     1.0000   1.0000   1.0000   1.0000   0.0000   0.0000   0.0000   0.0000

          k = 0.0278 0.4330 0.0000 (  1100 PWs)   bands (ev):

   -15.4518  -9.9266  -5.4362  -3.2530   4.5199   8.2214   8.6510  11.3182

     occupation numbers 
     1.0000   1.0000   1.0000   1.0000   0.0000   0.0000   0.0000   0.0000

          k = 0.0278 0.4651 0.0000 (  1101 PWs)   bands (ev):

   -14.9663 -10.6215  -5.5801  -2.7632   3.8116   8.5180   8.9802  11.9222

     occupation numbers 
     1.0000   1.0000   1.0000   1.0000   0.0000   0.0000   0.0000   0.0000

          k = 0.0278 0.4972 0.0000 (  1103 PWs)   bands (ev):

   -14.4560 -11.2909  -5.6892  -2.3009   3.1814   8.4887   9.6957  12.5427

     occupation numbers 
     1.0000   1.0000   1.0000   1.0000   0.0000   0.0000   0.0000   0.0000

          k = 0.0278 0.5292 0.0000 (  1100 PWs)   bands (ev):

   -13.9337 -11.9201  -5.7625  -1.9157   2.6823   8.4589  10.4717  13.0435

     occupation numbers 
     1.0000   1.0000   1.0000   1.0000   0.0000   0.0000   0.0000   0.0000

          k = 0.0278 0.5613 0.0000 (  1102 PWs)   bands (ev):

   -13.4677 -12.4400  -5.7993  -1.6853   2.3945   8.4428  11.2909  12.1551

     occupation numbers 
     1.0000   1.0000   1.0000   1.0000   0.0000   0.0000   0.0000   0.0000

          k = 0.0556 0.0962 0.0000 (  1103 PWs)   bands (ev):

   -18.5155  -6.7844  -3.1229  -2.7877   3.9991   7.3417   9.2086   9.6925

     occupation numbers 
     1.0000   1.0000   1.0000   1.0000   0.0000   0.0000   0.0000   0.0000

          k = 0.0556 0.1283 0.0000 (  1101 PWs)   bands (ev):

   -18.3877  -6.6301  -3.5432  -3.0445   4.1739   7.5076   9.2777   9.8712

     occupation numbers 
     1.0000   1.0000   1.0000   1.0000   0.0000   0.0000   0.0000   0.0000

          k = 0.0556 0.1604 0.0000 (  1105 PWs)   bands (ev):

   -18.2236  -6.4324  -4.0530  -3.3379   4.3987   7.7197   9.3324  10.0877

     occupation numbers 
     1.0000   1.0000   1.0000   1.0000   0.0000   0.0000   0.0000   0.0000

          k = 0.0556 0.1925 0.0000 (  1108 PWs)   bands (ev):

   -18.0234  -6.1921  -4.6360  -3.6499   4.6733   7.9761   9.3561  10.0422

     occupation numbers 
     1.0000   1.0000   1.0000   1.0000   0.0000   0.0000   0.0000   0.0000

          k = 0.0556 0.2245 0.0000 (  1104 PWs)   bands (ev):

   -17.7875  -5.9100  -5.2750  -3.9669   4.9978   8.2696   9.3436   9.4118

     occupation numbers 
     1.0000   1.0000   1.0000   1.0000   0.0000   0.0000   0.0000   0.0000

          k = 0.0556 0.2566 0.0000 (  1106 PWs)   bands (ev):

   -17.5160  -5.9542  -5.5873  -4.2782   5.3718   8.4841   8.8540   9.2991

     occupation numbers 
     1.0000   1.0000   1.0000   1.0000   0.0000   0.0000   0.0000   0.0000

          k = 0.0556 0.2887 0.0000 (  1104 PWs)   bands (ev):

   -17.2095  -6.6601  -5.2257  -4.5758   5.7953   7.9197   9.0803   9.2315

     occupation numbers 
     1.0000   1.0000   1.0000   1.0000   0.0000   0.0000   0.0000   0.0000

          k = 0.0556 0.3208 0.0000 (  1102 PWs)   bands (ev):

   -16.8683  -7.3809  -4.8537  -4.8273   6.2678   7.1734   9.1505   9.5051

     occupation numbers 
     1.0000   1.0000   1.0000   1.0000   0.0000   0.0000   0.0000   0.0000

          k = 0.0556 0.3528 0.0000 (  1104 PWs)   bands (ev):

   -16.4932  -8.1075  -5.1072  -4.3953   6.4031   6.7889   9.0642   9.9812

     occupation numbers 
     1.0000   1.0000   1.0000   1.0000   0.0000   0.0000   0.0000   0.0000

          k = 0.0556 0.3849 0.0000 (  1103 PWs)   bands (ev):

   -16.0850  -8.8320  -5.3327  -3.9345   5.6297   7.3576   8.9801  10.4982

     occupation numbers 
     1.0000   1.0000   1.0000   1.0000   0.0000   0.0000   0.0000   0.0000

          k = 0.0556 0.4170 0.0000 (  1101 PWs)   bands (ev):

   -15.6446  -9.5478  -5.5274  -3.4520   4.8695   7.9708   8.9058  11.0506

     occupation numbers 
     1.0000   1.0000   1.0000   1.0000   0.0000   0.0000   0.0000   0.0000

          k = 0.0556 0.4491 0.0000 (  1103 PWs)   bands (ev):

   -15.1739 -10.2490  -5.6892  -2.9599   4.1413   8.5945   8.8784  11.6317

     occupation numbers 
     1.0000   1.0000   1.0000   1.0000   0.0000   0.0000   0.0000   0.0000

          k = 0.0556 0.4811 0.0000 (  1105 PWs)   bands (ev):

   -14.6758 -10.9295  -5.8165  -2.4788   3.4712   8.7431   9.3854  12.2308

     occupation numbers 
     1.0000   1.0000   1.0000   1.0000   0.0000   0.0000   0.0000   0.0000

          k = 0.0556 0.5132 0.0000 (  1102 PWs)   bands (ev):

   -14.1576 -11.5795  -5.9083  -2.0460   2.9004   8.7122  10.1318  12.8269

     occupation numbers 
     1.0000   1.0000   1.0000   1.0000   0.0000   0.0000   0.0000   0.0000

          k = 0.0556 0.5453 0.0000 (  1102 PWs)   bands (ev):

   -13.6464 -12.1704  -5.9636  -1.7257   2.4963   8.6892  10.9288  12.6422

     occupation numbers 
     1.0000   1.0000   1.0000   1.0000   0.0000   0.0000   0.0000   0.0000

          k = 0.0556 0.5774 0.0000 (  1092 PWs)   bands (ev):

   -13.3351 -12.5083  -5.9821  -1.6034   2.3460   8.6813  11.7214  11.8161

     occupation numbers 
     1.0000   1.0000   1.0000   1.0000   0.0000   0.0000   0.0000   0.0000

          k = 0.0833 0.1443 0.0000 (  1103 PWs)   bands (ev):

   -18.2418  -6.4543  -3.9658  -3.3442   4.3738   7.6964   9.4054  10.0744

     occupation numbers 
     1.0000   1.0000   1.0000   1.0000   0.0000   0.0000   0.0000   0.0000

          k = 0.0833 0.1764 0.0000 (  1113 PWs)   bands (ev):

   -18.0598  -6.2356  -4.4658  -3.6774   4.6235   7.9310   9.5233  10.1494

     occupation numbers 
     1.0000   1.0000   1.0000   1.0000   0.0000   0.0000   0.0000   0.0000

          k = 0.0833 0.2085 0.0000 (  1107 PWs)   bands (ev):

   -17.8419  -5.9748  -5.0348  -4.0199   4.9232   8.2084   9.5599   9.6001

     occupation numbers 
     1.0000   1.0000   1.0000   1.0000   0.0000   0.0000   0.0000   0.0000

          k = 0.0833 0.2406 0.0000 (  1104 PWs)   bands (ev):

   -17.5884  -5.6728  -5.6602  -4.3563   5.2725   8.5042   8.9405   9.6241

     occupation numbers 
     1.0000   1.0000   1.0000   1.0000   0.0000   0.0000   0.0000   0.0000

          k = 0.0833 0.2726 0.0000 (  1108 PWs)   bands (ev):

   -17.2996  -6.3268  -5.3309  -4.6773   5.6714   8.1746   8.9458   9.6022

     occupation numbers 
     1.0000   1.0000   1.0000   1.0000   0.0000   0.0000   0.0000   0.0000

          k = 0.0833 0.3047 0.0000 (  1110 PWs)   bands (ev):

   -16.9761  -7.0206  -4.9769  -4.9512   6.1195   7.4593   9.3464   9.5483

     occupation numbers 
     1.0000   1.0000   1.0000   1.0000   0.0000   0.0000   0.0000   0.0000

          k = 0.0833 0.3368 0.0000 (  1108 PWs)   bands (ev):

   -16.6183  -7.7297  -5.2509  -4.5362   6.6165   6.7120   9.4763   9.7983

     occupation numbers 
     1.0000   1.0000   1.0000   1.0000   0.0000   0.0000   0.0000   0.0000

          k = 0.0833 0.3689 0.0000 (  1098 PWs)   bands (ev):

   -16.2270  -8.4441  -5.4963  -4.0897   5.9537   7.1619   9.3973  10.2899

     occupation numbers 
     1.0000   1.0000   1.0000   1.0000   0.0000   0.0000   0.0000   0.0000

          k = 0.0833 0.4009 0.0000 (  1097 PWs)   bands (ev):

   -15.8031  -9.1559  -5.7104  -3.6174   5.1988   7.7545   9.3196  10.8157

     occupation numbers 
     1.0000   1.0000   1.0000   1.0000   0.0000   0.0000   0.0000   0.0000

          k = 0.0833 0.4330 0.0000 (  1108 PWs)   bands (ev):

   -15.3482  -9.8582  -5.8914  -3.1284   4.4635   8.3909   9.2520  11.3686

     occupation numbers 
     1.0000   1.0000   1.0000   1.0000   0.0000   0.0000   0.0000   0.0000

          k = 0.0833 0.4651 0.0000 (  1107 PWs)   bands (ev):

   -14.8643 -10.5444  -6.0379  -2.6381   3.7692   9.0206   9.2484  11.9376

     occupation numbers 
     1.0000   1.0000   1.0000   1.0000   0.0000   0.0000   0.0000   0.0000

          k = 0.0833 0.4972 0.0000 (  1098 PWs)   bands (ev):

   -14.3559 -11.2069  -6.1486  -2.1737   3.1479   9.1099   9.8439  12.5029

     occupation numbers 
     1.0000   1.0000   1.0000   1.0000   0.0000   0.0000   0.0000   0.0000

          k = 0.0833 0.5292 0.0000 (  1095 PWs)   bands (ev):

   -13.8363 -11.8304  -6.2228  -1.7848   2.6525   9.0835  10.6134  13.0220

     occupation numbers 
     1.0000   1.0000   1.0000   1.0000   0.0000   0.0000   0.0000   0.0000

          k = 0.0833 0.5613 0.0000 (  1092 PWs)   bands (ev):

   -13.3741 -12.3449  -6.2601  -1.5510   2.3648   9.0681  11.4273  12.2845

     occupation numbers 
     1.0000   1.0000   1.0000   1.0000   0.0000   0.0000   0.0000   0.0000

          k = 0.1111 0.1925 0.0000 (  1103 PWs)   bands (ev):

   -17.8600  -5.9964  -4.9373  -4.0554   4.8983   8.1876   9.6109   9.7290

     occupation numbers 
     1.0000   1.0000   1.0000   1.0000   0.0000   0.0000   0.0000   0.0000

          k = 0.1111 0.2245 0.0000 (  1105 PWs)   bands (ev):

   -17.6246  -5.7155  -5.4711  -4.4392   5.2229   8.4852   9.0166   9.8956

     occupation numbers 
     1.0000   1.0000   1.0000   1.0000   0.0000   0.0000   0.0000   0.0000

          k = 0.1111 0.2566 0.0000 (  1107 PWs)   bands (ev):

   -17.3537  -6.0635  -5.3943  -4.8056   5.5970   8.3517   8.8482   9.9893

     occupation numbers 
     1.0000   1.0000   1.0000   1.0000   0.0000   0.0000   0.0000   0.0000

          k = 0.1111 0.2887 0.0000 (  1108 PWs)   bands (ev):

   -17.0480  -6.7029  -5.1440  -5.0342   6.0206   7.6710   9.2310  10.0112

     occupation numbers 
     1.0000   1.0000   1.0000   1.0000   0.0000   0.0000   0.0000   0.0000

          k = 0.1111 0.3208 0.0000 (  1104 PWs)   bands (ev):

   -16.7078  -7.3743  -5.4503  -4.6374   6.4932   6.9576   9.6584   9.9826

     occupation numbers 
     1.0000   1.0000   1.0000   1.0000   0.0000   0.0000   0.0000   0.0000

          k = 0.1111 0.3528 0.0000 (  1100 PWs)   bands (ev):

   -16.3338  -8.0643  -5.7232  -4.2071   6.2265   7.0145   9.9254  10.1230

     occupation numbers 
     1.0000   1.0000   1.0000   1.0000   0.0000   0.0000   0.0000   0.0000

          k = 0.1111 0.3849 0.0000 (  1106 PWs)   bands (ev):

   -15.9269  -8.7615  -5.9619  -3.7476   5.4899   7.5839   9.8556  10.6195

     occupation numbers 
     1.0000   1.0000   1.0000   1.0000   0.0000   0.0000   0.0000   0.0000

          k = 0.1111 0.4170 0.0000 (  1108 PWs)   bands (ev):

   -15.4883  -9.4567  -6.1655  -3.2661   4.7614   8.2002   9.7854  11.1401

     occupation numbers 
     1.0000   1.0000   1.0000   1.0000   0.0000   0.0000   0.0000   0.0000

          k = 0.1111 0.4491 0.0000 (  1108 PWs)   bands (ev):

   -15.0198 -10.1421  -6.3333  -2.7739   4.0587   8.8602   9.7242  11.6725

     occupation numbers 
     1.0000   1.0000   1.0000   1.0000   0.0000   0.0000   0.0000   0.0000

          k = 0.1111 0.4811 0.0000 (  1105 PWs)   bands (ev):

   -14.5244 -10.8102  -6.4645  -2.2908   3.4065   9.5157   9.7237  12.1961

     occupation numbers 
     1.0000   1.0000   1.0000   1.0000   0.0000   0.0000   0.0000   0.0000

          k = 0.1111 0.5132 0.0000 (  1096 PWs)   bands (ev):

   -14.0096 -11.4504  -6.5586  -1.8535   2.8454   9.6025  10.3493  12.6734

     occupation numbers 
     1.0000   1.0000   1.0000   1.0000   0.0000   0.0000   0.0000   0.0000

          k = 0.1111 0.5453 0.0000 (  1093 PWs)   bands (ev):

   -13.5031 -12.0329  -6.6152  -1.5270   2.4434   9.5829  11.1373  12.8242

     occupation numbers 
     1.0000   1.0000   1.0000   1.0000   0.0000   0.0000   0.0000   0.0000

          k = 0.1111 0.5774 0.0000 (  1084 PWs)   bands (ev):

   -13.1966 -12.3648  -6.6341  -1.4013   2.2925   9.5752  11.9146  12.0208

     occupation numbers 
     1.0000   1.0000   1.0000   1.0000   0.0000   0.0000   0.0000   0.0000

          k = 0.1389 0.2406 0.0000 (  1103 PWs)   bands (ev):

   -17.3718  -5.9541  -5.4154  -4.8709   5.5723   8.4209   8.8069  10.1816

     occupation numbers 
     1.0000   1.0000   1.0000   1.0000   0.0000   0.0000   0.0000   0.0000

          k = 0.1389 0.2726 0.0000 (  1107 PWs)   bands (ev):

   -17.0840  -6.4930  -5.2810  -5.0757   5.9711   7.7859   9.1682  10.3913

     occupation numbers 
     1.0000   1.0000   1.0000   1.0000   0.0000   0.0000   0.0000   0.0000

          k = 0.1389 0.3047 0.0000 (  1106 PWs)   bands (ev):

   -16.7616  -7.0866  -5.6496  -4.6983   6.4192   7.1179   9.5688  10.4934

     occupation numbers 
     1.0000   1.0000   1.0000   1.0000   0.0000   0.0000   0.0000   0.0000

          k = 0.1389 0.3368 0.0000 (  1104 PWs)   bands (ev):

   -16.4052  -7.7224  -5.9714  -4.2857   6.4267   6.9161  10.0045  10.5088

     occupation numbers 
     1.0000   1.0000   1.0000   1.0000   0.0000   0.0000   0.0000   0.0000

          k = 0.1389 0.3689 0.0000 (  1102 PWs)   bands (ev):

   -16.0156  -8.3843  -6.2485  -3.8414   5.7218   7.4613  10.4694  10.4744

     occupation numbers 
     1.0000   1.0000   1.0000   1.0000   0.0000   0.0000   0.0000   0.0000

          k = 0.1389 0.4009 0.0000 (  1106 PWs)   bands (ev):

   -15.5938  -9.0582  -6.4834  -3.3709   5.0147   8.0543  10.4175  10.9545

     occupation numbers 
     1.0000   1.0000   1.0000   1.0000   0.0000   0.0000   0.0000   0.0000

          k = 0.1389 0.4330 0.0000 (  1108 PWs)   bands (ev):

   -15.1415  -9.7326  -6.6780  -2.8827   4.3195   8.6936  10.3555  11.4454

     occupation numbers 
     1.0000   1.0000   1.0000   1.0000   0.0000   0.0000   0.0000   0.0000

          k = 0.1389 0.4651 0.0000 (  1108 PWs)   bands (ev):

   -14.6608 -10.3979  -6.8332  -2.3912   3.6557   9.3765  10.3004  11.9191

     occupation numbers 
     1.0000   1.0000   1.0000   1.0000   0.0000   0.0000   0.0000   0.0000

          k = 0.1389 0.4972 0.0000 (  1100 PWs)   bands (ev):

   -14.1565 -11.0444  -6.9495  -1.9224   3.0537  10.0717  10.2876  12.3401

     occupation numbers 
     1.0000   1.0000   1.0000   1.0000   0.0000   0.0000   0.0000   0.0000

          k = 0.1389 0.5292 0.0000 (  1094 PWs)   bands (ev):

   -13.6423 -11.6552  -7.0270  -1.5254   2.5659  10.1989  10.8978  12.6609

     occupation numbers 
     1.0000   1.0000   1.0000   1.0000   0.0000   0.0000   0.0000   0.0000

          k = 0.1389 0.5613 0.0000 (  1086 PWs)   bands (ev):

   -13.1872 -12.1590  -7.0657  -1.2833   2.2779  10.1867  11.6972  12.5375

     occupation numbers 
     1.0000   1.0000   1.0000   1.0000   0.0000   0.0000   0.0000   0.0000

          k = 0.1667 0.2887 0.0000 (  1105 PWs)   bands (ev):

   -16.7795  -6.9642  -5.7434  -4.7186   6.3945   7.1740   9.5377  10.7555

     occupation numbers 
     1.0000   1.0000   1.0000   1.0000   0.0000   0.0000   0.0000   0.0000

          k = 0.1667 0.3208 0.0000 (  1105 PWs)   bands (ev):

   -16.4409  -7.4906  -6.1589  -4.3251   6.5334   6.8668   9.9424  10.9978

     occupation numbers 
     1.0000   1.0000   1.0000   1.0000   0.0000   0.0000   0.0000   0.0000

          k = 0.1667 0.3528 0.0000 (  1108 PWs)   bands (ev):

   -16.0689  -8.0719  -6.5115  -3.8980   5.8728   7.3876  10.3740  11.0952

     occupation numbers 
     1.0000   1.0000   1.0000   1.0000   0.0000   0.0000   0.0000   0.0000

          k = 0.1667 0.3849 0.0000 (  1098 PWs)   bands (ev):

   -15.6644  -8.6928  -6.8025  -3.4415   5.2013   7.9563  10.8216  11.0981

     occupation numbers 
     1.0000   1.0000   1.0000   1.0000   0.0000   0.0000   0.0000   0.0000

          k = 0.1667 0.4170 0.0000 (  1106 PWs)   bands (ev):

   -15.2288  -9.3353  -7.0392  -2.9621   4.5297   8.5720  11.0582  11.2679

     occupation numbers 
     1.0000   1.0000   1.0000   1.0000   0.0000   0.0000   0.0000   0.0000

          k = 0.1667 0.4491 0.0000 (  1100 PWs)   bands (ev):

   -14.7639  -9.9835  -7.2277  -2.4701   3.8730   9.2333  11.0056  11.6869

     occupation numbers 
     1.0000   1.0000   1.0000   1.0000   0.0000   0.0000   0.0000   0.0000

          k = 0.1667 0.4811 0.0000 (  1101 PWs)   bands (ev):

   -14.2731 -10.6247  -7.3718  -1.9838   3.2537   9.9372  10.9567  12.0434

     occupation numbers 
     1.0000   1.0000   1.0000   1.0000   0.0000   0.0000   0.0000   0.0000

          k = 0.1667 0.5132 0.0000 (  1096 PWs)   bands (ev):

   -13.7642 -11.2448  -7.4737  -1.5379   2.7102  10.6665  10.9339  12.3033

     occupation numbers 
     1.0000   1.0000   1.0000   1.0000   0.0000   0.0000   0.0000   0.0000

          k = 0.1667 0.5453 0.0000 (  1086 PWs)   bands (ev):

   -13.2654 -11.8117  -7.5344  -1.1986   2.3111  10.8733  11.4837  12.4528

     occupation numbers 
     1.0000   1.0000   1.0000   1.0000   0.0000   0.0000   0.0000   0.0000

          k = 0.1667 0.5774 0.0000 (  1088 PWs)   bands (ev):

   -12.9662 -12.1339  -7.5546  -1.0656   2.1580  10.8684  12.2280  12.3558

     occupation numbers 
     1.0000   1.0000   1.0000   1.0000   0.0000   0.0000   0.0000   0.0000

          k = 0.1944 0.3368 0.0000 (  1117 PWs)   bands (ev):

   -16.0867  -7.9355  -6.6323  -3.9169   5.9254   7.3630  10.3411  11.4346

     occupation numbers 
     1.0000   1.0000   1.0000   1.0000   0.0000   0.0000   0.0000   0.0000

          k = 0.1944 0.3689 0.0000 (  1097 PWs)   bands (ev):

   -15.6997  -8.4387  -7.0358  -3.4770   5.3007   7.9072  10.7517  11.6918

     occupation numbers 
     1.0000   1.0000   1.0000   1.0000   0.0000   0.0000   0.0000   0.0000

          k = 0.1944 0.4009 0.0000 (  1102 PWs)   bands (ev):

   -15.2813  -8.9989  -7.3581  -3.0104   4.6672   8.4986  11.1536  11.7662

     occupation numbers 
     1.0000   1.0000   1.0000   1.0000   0.0000   0.0000   0.0000   0.0000

          k = 0.1944 0.4330 0.0000 (  1100 PWs)   bands (ev):

   -14.8330  -9.5971  -7.6071  -2.5244   4.0354   9.1359  11.5170  11.7510

     occupation numbers 
     1.0000   1.0000   1.0000   1.0000   0.0000   0.0000   0.0000   0.0000

          k = 0.1944 0.4651 0.0000 (  1097 PWs)   bands (ev):

   -14.3574 -10.2113  -7.7950  -2.0317   3.4210   9.8172  11.7081  11.8061

     occupation numbers 
     1.0000   1.0000   1.0000   1.0000   0.0000   0.0000   0.0000   0.0000

          k = 0.1944 0.4972 0.0000 (  1089 PWs)   bands (ev):

   -13.8595 -10.8227  -7.9305  -1.5557   2.8507  10.5390  11.6648  11.9972

     occupation numbers 
     1.0000   1.0000   1.0000   1.0000   0.0000   0.0000   0.0000   0.0000

          k = 0.1944 0.5292 0.0000 (  1087 PWs)   bands (ev):

   -13.3534 -11.4086  -8.0187  -1.1435   2.3739  11.2890  11.6399  12.0977

     occupation numbers 
     1.0000   1.0000   1.0000   1.0000   0.0000   0.0000   0.0000   0.0000

          k = 0.1944 0.5613 0.0000 (  1084 PWs)   bands (ev):

   -12.9081 -11.8949  -8.0623  -0.8844   2.0820  11.5967  12.0961  12.1367

     occupation numbers 
     1.0000   1.0000   1.0000   1.0000   0.0000   0.0000   0.0000   0.0000

          k = 0.2222 0.3849 0.0000 (  1105 PWs)   bands (ev):

   -15.2988  -8.8483  -7.5036  -3.0266   4.7152   8.4740  11.1140  12.1911

     occupation numbers 
     1.0000   1.0000   1.0000   1.0000   0.0000   0.0000   0.0000   0.0000

          k = 0.2222 0.4170 0.0000 (  1099 PWs)   bands (ev):

   -14.8676  -9.3215  -7.8810  -2.5520   4.1226   9.0869  11.4266  12.4315

     occupation numbers 
     1.0000   1.0000   1.0000   1.0000   0.0000   0.0000   0.0000   0.0000

          k = 0.2222 0.4491 0.0000 (  1096 PWs)   bands (ev):

   -14.4083  -9.8542  -8.1612  -2.0620   3.5327   9.7442  11.6517  12.4620

     occupation numbers 
     1.0000   1.0000   1.0000   1.0000   0.0000   0.0000   0.0000   0.0000

          k = 0.2222 0.4811 0.0000 (  1092 PWs)   bands (ev):

   -13.9244 -10.4214  -8.3591  -1.5717   2.9623  10.4427  11.7725  12.4283

     occupation numbers 
     1.0000   1.0000   1.0000   1.0000   0.0000   0.0000   0.0000   0.0000

          k = 0.2222 0.5132 0.0000 (  1086 PWs)   bands (ev):

   -13.4243 -10.9939  -8.4907  -1.1116   2.4433  11.1771  11.8122  12.3889

     occupation numbers 
     1.0000   1.0000   1.0000   1.0000   0.0000   0.0000   0.0000   0.0000

          k = 0.2222 0.5453 0.0000 (  1091 PWs)   bands (ev):

   -12.9359 -11.5304  -8.5663  -0.7471   2.0429  11.8139  11.9330  12.3651

     occupation numbers 
     1.0000   1.0000   1.0000   1.0000   0.0000   0.0000   0.0000   0.0000

          k = 0.2222 0.5774 0.0000 (  1088 PWs)   bands (ev):

   -12.6439 -11.8390  -8.5910  -0.5980   1.8817  11.8107  12.3296  12.6435

     occupation numbers 
     1.0000   1.0000   1.0000   1.0000   0.0000   0.0000   0.0000   0.0000

          k = 0.2500 0.4330 0.0000 (  1111 PWs)   bands (ev):

   -14.4253  -9.6904  -8.3287  -2.0723   3.5720   9.7197  11.5978  12.9706

     occupation numbers 
     1.0000   1.0000   1.0000   1.0000   0.0000   0.0000   0.0000   0.0000

          k = 0.2500 0.4651 0.0000 (  1094 PWs)   bands (ev):

   -13.9572 -10.1286  -8.6667  -1.5809   3.0241  10.3941  11.6532  13.1390

     occupation numbers 
     1.0000   1.0000   1.0000   1.0000   0.0000   0.0000   0.0000   0.0000

          k = 0.2500 0.4972 0.0000 (  1088 PWs)   bands (ev):

   -13.4689 -10.6262  -8.8935  -1.0958   2.4964  11.1049  11.6274  13.1149

     occupation numbers 
     1.0000   1.0000   1.0000   1.0000   0.0000   0.0000   0.0000   0.0000

          k = 0.2500 0.5292 0.0000 (  1092 PWs)   bands (ev):

   -12.9743 -11.1443  -9.0297  -0.6565   2.0286  11.5757  11.8421  13.0741

     occupation numbers 
     1.0000   1.0000   1.0000   1.0000   0.0000   0.0000   0.0000   0.0000

          k = 0.2500 0.5613 0.0000 (  1088 PWs)   bands (ev):

   -12.5389 -11.5964  -9.0935  -0.3596   1.7173  11.5400  12.5795  13.0391

     occupation numbers 
     1.0000   1.0000   1.0000   1.0000   0.0000   0.0000   0.0000   0.0000

          k = 0.2778 0.4811 0.0000 (  1087 PWs)   bands (ev):

   -13.4841 -10.4539  -9.0777  -1.0911   2.5162  11.0806  11.5635  13.6585

     occupation numbers 
     1.0000   1.0000   1.0000   1.0000   0.0000   0.0000   0.0000   0.0000

          k = 0.2778 0.5132 0.0000 (  1088 PWs)   bands (ev):

   -12.9972 -10.8514  -9.3588  -0.6119   2.0258  11.4498  11.7942  13.6663

     occupation numbers 
     1.0000   1.0000   1.0000   1.0000   0.0000   0.0000   0.0000   0.0000

          k = 0.2778 0.5453 0.0000 (  1084 PWs)   bands (ev):

   -12.5221 -11.2893  -9.5125  -0.1959   1.6038  11.3636  12.5138  13.5915

     occupation numbers 
     1.0000   1.0000   1.0000   1.0004  -0.0004   0.0000   0.0000   0.0000

          k = 0.2778 0.5774 0.0000 (  1074 PWs)   bands (ev):

   -12.2304 -11.5722  -9.5604  -0.0014   1.4074  11.3321  13.1196  13.2714

     occupation numbers 
     1.0000   1.0000   1.0000   0.9999   0.0001   0.0000   0.0000   0.0000

          k = 0.3056 0.5292 0.0000 (  1087 PWs)   bands (ev):

   -12.5225 -11.1337  -9.7000  -0.1366   1.5622  11.3025  12.4906  13.8234

     occupation numbers 
     1.0000   1.0000   1.0000   0.9999   0.0001   0.0000   0.0000   0.0000

          k = 0.3056 0.5613 0.0000 (  1072 PWs)   bands (ev):

   -12.0921 -11.4651  -9.8739   0.2647   1.1677  11.2212  13.1411  13.6551

     occupation numbers 
     1.0000   1.0000   1.0000   0.9997   0.0003   0.0000   0.0000   0.0000

          k = 0.3333 0.5774 0.0000 (  1050 PWs)   bands (ev):

   -11.7265 -11.7265 -10.0141   0.7206   0.7206  11.1715  13.5638  13.5638

     occupation numbers 
     1.0000   1.0000   1.0000   0.5000   0.5000   0.0000   0.0000   0.0000

     the Fermi energy is     0.7209 ev
     (compare with:     0.7215 eV, computed in scf)

     Writing all to output data dir ./tmp/graphene/graphene.save/

     init_run     :      0.28s CPU      0.34s WALL (       1 calls)
     electrons    :     47.63s CPU     48.24s WALL (       1 calls)

     Called by init_run:
     wfcinit      :      0.00s CPU      0.00s WALL (       1 calls)
     wfcinit:atom :      0.03s CPU      0.03s WALL (     127 calls)
     wfcinit:wfcr :      1.06s CPU      1.10s WALL (     127 calls)
     potinit      :      0.01s CPU      0.01s WALL (       1 calls)
     hinit0       :      0.22s CPU      0.27s WALL (       1 calls)

     Called by electrons:
     c_bands      :     47.22s CPU     47.83s WALL (       1 calls)
     v_of_rho     :      0.01s CPU      0.01s WALL (       1 calls)
     v_h          :      0.00s CPU      0.00s WALL (       1 calls)
     v_xc         :      0.01s CPU      0.01s WALL (       1 calls)
     newd         :      0.01s CPU      0.02s WALL (       1 calls)

     Called by c_bands:
     init_us_2    :      0.04s CPU      0.04s WALL (     127 calls)
     init_us_2:cp :      0.03s CPU      0.04s WALL (     127 calls)
     cegterg      :     45.96s CPU     46.50s WALL (     499 calls)

     Called by sum_band:

     Called by *egterg:
     cdiaghg      :      1.15s CPU      1.17s WALL (    9180 calls)
     cegterg:over :      0.93s CPU      0.95s WALL (    9053 calls)
     cegterg:upda :      0.64s CPU      0.65s WALL (    9053 calls)
     cegterg:last :      1.16s CPU      1.18s WALL (    5887 calls)
     h_psi        :     41.62s CPU     42.14s WALL (    9679 calls)
     s_psi        :      0.46s CPU      0.47s WALL (    9679 calls)
     g_psi        :      0.46s CPU      0.47s WALL (    9053 calls)

     Called by h_psi:
     h_psi:calbec :      0.60s CPU      0.60s WALL (    9679 calls)
     vloc_psi     :     40.36s CPU     40.87s WALL (    9679 calls)
     add_vuspsi   :      0.50s CPU      0.51s WALL (    9679 calls)

     General routines
     calbec       :      0.57s CPU      0.58s WALL (    9679 calls)
     fft          :      0.01s CPU      0.05s WALL (       6 calls)
     ffts         :      0.00s CPU      0.00s WALL (       1 calls)
     fftw         :     34.13s CPU     34.57s WALL (   96926 calls)
     interpolate  :      0.00s CPU      0.00s WALL (       1 calls)
     davcio       :      0.02s CPU      0.02s WALL (     254 calls)

     Parallel routines

     PWSCF        :     48.08s CPU     48.77s WALL


   This run was terminated on:  12:29:27   4Jul2023            

=------------------------------------------------------------------------------=
   JOB DONE.
=------------------------------------------------------------------------------=
