
     Program PWSCF v.7.2 starts on 29Jun2023 at 14:18:29 

     This program is part of the open-source Quantum ESPRESSO suite
     for quantum simulation of materials; please cite
         "P. Giannozzi et al., J. Phys.:Condens. Matter 21 395502 (2009);
         "P. Giannozzi et al., J. Phys.:Condens. Matter 29 465901 (2017);
         "P. Giannozzi et al., J. Chem. Phys. 152 154105 (2020);
          URL http://www.quantum-espresso.org", 
     in publications or presentations arising from this work. More details at
     http://www.quantum-espresso.org/quote

     Parallel version (MPI), running on     1 processors

     MPI processes distributed on     1 nodes
     1618 MiB available memory on the printing compute node when the environment starts

     Waiting for input...
     Reading input from standard input

     Current dimensions of program PWSCF are:
     Max number of different atomic species (ntypx) = 10
     Max number of k-points (npk) =  40000
     Max angular momentum in pseudopotentials (lmaxx) =  4

     Subspace diagonalization in iterative solution of the eigenvalue problem:
     a serial algorithm will be used


     G-vector sticks info
     --------------------
     sticks:   dense  smooth     PW     G-vecs:    dense   smooth      PW
     Sum         595     241     85                35435     8973    1713

     Using Slab Decomposition



     bravais-lattice index     =            4
     lattice parameter (alat)  =       4.6540  a.u.
     unit-cell volume          =     261.8973 (a.u.)^3
     number of atoms/cell      =            2
     number of atomic types    =            1
     number of electrons       =         8.00
     number of Kohn-Sham states=            8
     kinetic-energy cutoff     =      40.0000  Ry
     charge density cutoff     =     400.0000  Ry
     scf convergence threshold =      1.0E-08
     mixing beta               =       0.7000
     number of iterations used =            8  plain     mixing
     Exchange-correlation= LDA
                           (   1   1   0   0   0   0   0)

     celldm(1)=   4.654000  celldm(2)=   0.000000  celldm(3)=   3.000000
     celldm(4)=   0.000000  celldm(5)=   0.000000  celldm(6)=   0.000000

     crystal axes: (cart. coord. in units of alat)
               a(1) = (   1.000000   0.000000   0.000000 )  
               a(2) = (  -0.500000   0.866025   0.000000 )  
               a(3) = (   0.000000   0.000000   3.000000 )  

     reciprocal axes: (cart. coord. in units 2 pi/alat)
               b(1) = (  1.000000  0.577350 -0.000000 )  
               b(2) = (  0.000000  1.154701  0.000000 )  
               b(3) = (  0.000000 -0.000000  0.333333 )  


     PseudoPot. # 1 for C  read from file:
     ./C.pz-n-rrkjus_psl.0.1.UPF
     MD5 check sum: a3cecbabebb5b3a1aff122f23eb09bb0
     Pseudo is Ultrasoft + core correction, Zval =  4.0
     Generated using "atomic" code by A. Dal Corso  v.5.0.2 svn rev. 9415
     Using radial grid of 1073 points,  4 beta functions with: 
                l(1) =   0
                l(2) =   0
                l(3) =   1
                l(4) =   1
     Q(r) pseudized with 0 coefficients 


     atomic species   valence    mass     pseudopotential
        C              4.00    12.01070     C ( 1.00)

     24 Sym. Ops., with inversion, found (12 have fractional translation)


                                    s                        frac. trans.

      isym =  1     identity                                     

 cryst.   s( 1) = (     1          0          0      )
                  (     0          1          0      )
                  (     0          0          1      )

 cart.    s( 1) = (  1.0000000  0.0000000  0.0000000 )
                  (  0.0000000  1.0000000  0.0000000 )
                  (  0.0000000  0.0000000  1.0000000 )


      isym =  2     180 deg rotation - cart. axis [0,0,1]        

 cryst.   s( 2) = (    -1          0          0      )    f =( -0.3333334 )
                  (     0         -1          0      )       (  0.3333333 )
                  (     0          0          1      )       (  0.0000000 )

 cart.    s( 2) = ( -1.0000000  0.0000000  0.0000000 )    f =( -0.5000000 )
                  (  0.0000000 -1.0000000  0.0000000 )       (  0.2886751 )
                  (  0.0000000  0.0000000  1.0000000 )       (  0.0000000 )


      isym =  3     180 deg rotation - cart. axis [0,1,0]        

 cryst.   s( 3) = (    -1          0          0      )
                  (     1          1          0      )
                  (     0          0         -1      )

 cart.    s( 3) = ( -1.0000000  0.0000000  0.0000000 )
                  (  0.0000000  1.0000000  0.0000000 )
                  (  0.0000000  0.0000000 -1.0000000 )


      isym =  4     180 deg rotation - cart. axis [1,0,0]        

 cryst.   s( 4) = (     1          0          0      )    f =( -0.3333334 )
                  (    -1         -1          0      )       (  0.3333333 )
                  (     0          0         -1      )       (  0.0000000 )

 cart.    s( 4) = (  1.0000000  0.0000000  0.0000000 )    f =( -0.5000000 )
                  (  0.0000000 -1.0000000  0.0000000 )       (  0.2886751 )
                  (  0.0000000  0.0000000 -1.0000000 )       (  0.0000000 )


      isym =  5      60 deg rotation - cryst. axis [0,0,1]       

 cryst.   s( 5) = (     1          1          0      )    f =( -0.3333334 )
                  (    -1          0          0      )       (  0.3333334 )
                  (     0          0          1      )       (  0.0000000 )

 cart.    s( 5) = (  0.5000000 -0.8660254  0.0000000 )    f =( -0.5000000 )
                  (  0.8660254  0.5000000  0.0000000 )       (  0.2886751 )
                  (  0.0000000  0.0000000  1.0000000 )       (  0.0000000 )


      isym =  6      60 deg rotation - cryst. axis [0,0,-1]      

 cryst.   s( 6) = (     0         -1          0      )    f =( -0.3333333 )
                  (     1          1          0      )       (  0.3333334 )
                  (     0          0          1      )       (  0.0000000 )

 cart.    s( 6) = (  0.5000000  0.8660254  0.0000000 )    f =( -0.5000000 )
                  ( -0.8660254  0.5000000  0.0000000 )       (  0.2886751 )
                  (  0.0000000  0.0000000  1.0000000 )       (  0.0000000 )


      isym =  7     120 deg rotation - cryst. axis [0,0,1]       

 cryst.   s( 7) = (     0          1          0      )
                  (    -1         -1          0      )
                  (     0          0          1      )

 cart.    s( 7) = ( -0.5000000 -0.8660254  0.0000000 )
                  (  0.8660254 -0.5000000  0.0000000 )
                  (  0.0000000  0.0000000  1.0000000 )


      isym =  8     120 deg rotation - cryst. axis [0,0,-1]      

 cryst.   s( 8) = (    -1         -1          0      )
                  (     1          0          0      )
                  (     0          0          1      )

 cart.    s( 8) = ( -0.5000000  0.8660254  0.0000000 )
                  ( -0.8660254 -0.5000000  0.0000000 )
                  (  0.0000000  0.0000000  1.0000000 )


      isym =  9     180 deg rotation - cryst. axis [1,-1,0]      

 cryst.   s( 9) = (     0         -1          0      )
                  (    -1          0          0      )
                  (     0          0         -1      )

 cart.    s( 9) = (  0.5000000 -0.8660254  0.0000000 )
                  ( -0.8660254 -0.5000000  0.0000000 )
                  (  0.0000000  0.0000000 -1.0000000 )


      isym = 10     180 deg rotation - cryst. axis [2,1,0]       

 cryst.   s(10) = (     1          1          0      )
                  (     0         -1          0      )
                  (     0          0         -1      )

 cart.    s(10) = (  0.5000000  0.8660254  0.0000000 )
                  (  0.8660254 -0.5000000  0.0000000 )
                  (  0.0000000  0.0000000 -1.0000000 )


      isym = 11     180 deg rotation - cryst. axis [0,1,0]       

 cryst.   s(11) = (    -1         -1          0      )    f =( -0.3333334 )
                  (     0          1          0      )       (  0.3333334 )
                  (     0          0         -1      )       (  0.0000000 )

 cart.    s(11) = ( -0.5000000 -0.8660254  0.0000000 )    f =( -0.5000000 )
                  ( -0.8660254  0.5000000  0.0000000 )       (  0.2886751 )
                  (  0.0000000  0.0000000 -1.0000000 )       (  0.0000000 )


      isym = 12     180 deg rotation - cryst. axis [1,1,0]       

 cryst.   s(12) = (     0          1          0      )    f =( -0.3333333 )
                  (     1          0          0      )       (  0.3333334 )
                  (     0          0         -1      )       (  0.0000000 )

 cart.    s(12) = ( -0.5000000  0.8660254  0.0000000 )    f =( -0.5000000 )
                  (  0.8660254  0.5000000  0.0000000 )       (  0.2886751 )
                  (  0.0000000  0.0000000 -1.0000000 )       (  0.0000000 )


      isym = 13     inversion                                    

 cryst.   s(13) = (    -1          0          0      )    f =( -0.3333334 )
                  (     0         -1          0      )       (  0.3333333 )
                  (     0          0         -1      )       (  0.0000000 )

 cart.    s(13) = ( -1.0000000  0.0000000  0.0000000 )    f =( -0.5000000 )
                  (  0.0000000 -1.0000000  0.0000000 )       (  0.2886751 )
                  (  0.0000000  0.0000000 -1.0000000 )       (  0.0000000 )


      isym = 14     inv. 180 deg rotation - cart. axis [0,0,1]   

 cryst.   s(14) = (     1          0          0      )
                  (     0          1          0      )
                  (     0          0         -1      )

 cart.    s(14) = (  1.0000000  0.0000000  0.0000000 )
                  (  0.0000000  1.0000000  0.0000000 )
                  (  0.0000000  0.0000000 -1.0000000 )


      isym = 15     inv. 180 deg rotation - cart. axis [0,1,0]   

 cryst.   s(15) = (     1          0          0      )    f =( -0.3333334 )
                  (    -1         -1          0      )       (  0.3333333 )
                  (     0          0          1      )       (  0.0000000 )

 cart.    s(15) = (  1.0000000  0.0000000  0.0000000 )    f =( -0.5000000 )
                  (  0.0000000 -1.0000000  0.0000000 )       (  0.2886751 )
                  (  0.0000000  0.0000000  1.0000000 )       (  0.0000000 )


      isym = 16     inv. 180 deg rotation - cart. axis [1,0,0]   

 cryst.   s(16) = (    -1          0          0      )
                  (     1          1          0      )
                  (     0          0          1      )

 cart.    s(16) = ( -1.0000000  0.0000000  0.0000000 )
                  (  0.0000000  1.0000000  0.0000000 )
                  (  0.0000000  0.0000000  1.0000000 )


      isym = 17     inv.  60 deg rotation - cryst. axis [0,0,1]  

 cryst.   s(17) = (    -1         -1          0      )
                  (     1          0          0      )
                  (     0          0         -1      )

 cart.    s(17) = ( -0.5000000  0.8660254  0.0000000 )
                  ( -0.8660254 -0.5000000  0.0000000 )
                  (  0.0000000  0.0000000 -1.0000000 )


      isym = 18     inv.  60 deg rotation - cryst. axis [0,0,-1] 

 cryst.   s(18) = (     0          1          0      )
                  (    -1         -1          0      )
                  (     0          0         -1      )

 cart.    s(18) = ( -0.5000000 -0.8660254  0.0000000 )
                  (  0.8660254 -0.5000000  0.0000000 )
                  (  0.0000000  0.0000000 -1.0000000 )


      isym = 19     inv. 120 deg rotation - cryst. axis [0,0,1]  

 cryst.   s(19) = (     0         -1          0      )    f =( -0.3333333 )
                  (     1          1          0      )       (  0.3333334 )
                  (     0          0         -1      )       (  0.0000000 )

 cart.    s(19) = (  0.5000000  0.8660254  0.0000000 )    f =( -0.5000000 )
                  ( -0.8660254  0.5000000  0.0000000 )       (  0.2886751 )
                  (  0.0000000  0.0000000 -1.0000000 )       (  0.0000000 )


      isym = 20     inv. 120 deg rotation - cryst. axis [0,0,-1] 

 cryst.   s(20) = (     1          1          0      )    f =( -0.3333334 )
                  (    -1          0          0      )       (  0.3333334 )
                  (     0          0         -1      )       (  0.0000000 )

 cart.    s(20) = (  0.5000000 -0.8660254  0.0000000 )    f =( -0.5000000 )
                  (  0.8660254  0.5000000  0.0000000 )       (  0.2886751 )
                  (  0.0000000  0.0000000 -1.0000000 )       (  0.0000000 )


      isym = 21     inv. 180 deg rotation - cryst. axis [1,-1,0] 

 cryst.   s(21) = (     0          1          0      )    f =( -0.3333333 )
                  (     1          0          0      )       (  0.3333334 )
                  (     0          0          1      )       (  0.0000000 )

 cart.    s(21) = ( -0.5000000  0.8660254  0.0000000 )    f =( -0.5000000 )
                  (  0.8660254  0.5000000  0.0000000 )       (  0.2886751 )
                  (  0.0000000  0.0000000  1.0000000 )       (  0.0000000 )


      isym = 22     inv. 180 deg rotation - cryst. axis [2,1,0]  

 cryst.   s(22) = (    -1         -1          0      )    f =( -0.3333334 )
                  (     0          1          0      )       (  0.3333334 )
                  (     0          0          1      )       (  0.0000000 )

 cart.    s(22) = ( -0.5000000 -0.8660254  0.0000000 )    f =( -0.5000000 )
                  ( -0.8660254  0.5000000  0.0000000 )       (  0.2886751 )
                  (  0.0000000  0.0000000  1.0000000 )       (  0.0000000 )


      isym = 23     inv. 180 deg rotation - cryst. axis [0,1,0]  

 cryst.   s(23) = (     1          1          0      )
                  (     0         -1          0      )
                  (     0          0          1      )

 cart.    s(23) = (  0.5000000  0.8660254  0.0000000 )
                  (  0.8660254 -0.5000000  0.0000000 )
                  (  0.0000000  0.0000000  1.0000000 )


      isym = 24     inv. 180 deg rotation - cryst. axis [1,1,0]  

 cryst.   s(24) = (     0         -1          0      )
                  (    -1          0          0      )
                  (     0          0          1      )

 cart.    s(24) = (  0.5000000 -0.8660254  0.0000000 )
                  ( -0.8660254 -0.5000000  0.0000000 )
                  (  0.0000000  0.0000000  1.0000000 )


     point group D_6h(6/mmm)
     there are 12 classes
     the character table:

       E     2C6   2C3   C2    3C2'  3C2'' i     2S3   2S6   s_h   3s_d  3s_v 
A_1g   1.00  1.00  1.00  1.00  1.00  1.00  1.00  1.00  1.00  1.00  1.00  1.00
A_2g   1.00  1.00  1.00  1.00 -1.00 -1.00  1.00  1.00  1.00  1.00 -1.00 -1.00
B_1g   1.00 -1.00  1.00 -1.00  1.00 -1.00  1.00 -1.00  1.00 -1.00  1.00 -1.00
B_2g   1.00 -1.00  1.00 -1.00 -1.00  1.00  1.00 -1.00  1.00 -1.00 -1.00  1.00
E_1g   2.00  1.00 -1.00 -2.00  0.00  0.00  2.00  1.00 -1.00 -2.00  0.00  0.00
E_2g   2.00 -1.00 -1.00  2.00  0.00  0.00  2.00 -1.00 -1.00  2.00  0.00  0.00
A_1u   1.00  1.00  1.00  1.00  1.00  1.00 -1.00 -1.00 -1.00 -1.00 -1.00 -1.00
A_2u   1.00  1.00  1.00  1.00 -1.00 -1.00 -1.00 -1.00 -1.00 -1.00  1.00  1.00
B_1u   1.00 -1.00  1.00 -1.00  1.00 -1.00 -1.00  1.00 -1.00  1.00 -1.00  1.00
B_2u   1.00 -1.00  1.00 -1.00 -1.00  1.00 -1.00  1.00 -1.00  1.00  1.00 -1.00
E_1u   2.00  1.00 -1.00 -2.00  0.00  0.00 -2.00 -1.00  1.00  2.00  0.00  0.00
E_2u   2.00 -1.00 -1.00  2.00  0.00  0.00 -2.00  1.00  1.00 -2.00  0.00  0.00

     the symmetry operations in each class and the name of the first element:

     E        1
          identity                                               
     2C6      5    6
           60 deg rotation - cryst. axis [0,0,1]                 
     2C3      7    8
          120 deg rotation - cryst. axis [0,0,1]                 
     C2       2
          180 deg rotation - cart. axis [0,0,1]                  
     3C2'     4   12   11
          180 deg rotation - cart. axis [1,0,0]                  
     3C2''    3    9   10
          180 deg rotation - cart. axis [0,1,0]                  
     i       13
          inversion                                              
     2S3     17   18
          inv.  60 deg rotation - cryst. axis [0,0,1]            
     2S6     19   20
          inv. 120 deg rotation - cryst. axis [0,0,1]            
     s_h     14
          inv. 180 deg rotation - cart. axis [0,0,1]             
     3s_d    16   24   23
          inv. 180 deg rotation - cart. axis [1,0,0]             
     3s_v    15   21   22
          inv. 180 deg rotation - cart. axis [0,1,0]             

   Cartesian axes

     site n.     atom                  positions (alat units)
         1           C   tau(   1) = (   0.0000000   0.0000000   0.0000000  )
         2           C   tau(   2) = (   0.0000000   0.5773503   0.0000000  )

   Crystallographic axes

     site n.     atom                  positions (cryst. coord.)
         1           C   tau(   1) = (  0.0000000  0.0000000  0.0000000  )
         2           C   tau(   2) = (  0.3333334  0.6666667  0.0000000  )

     number of k points=    37  Gaussian smearing, width (Ry)=  0.0100
                       cart. coord. in units 2pi/alat
        k(    1) = (   0.0000000   0.0000000   0.0000000), wk =   0.0061728
        k(    2) = (   0.0000000   0.0641500   0.0000000), wk =   0.0370370
        k(    3) = (   0.0000000   0.1283001   0.0000000), wk =   0.0370370
        k(    4) = (   0.0000000   0.1924501   0.0000000), wk =   0.0370370
        k(    5) = (   0.0000000   0.2566001   0.0000000), wk =   0.0370370
        k(    6) = (   0.0000000   0.3207501   0.0000000), wk =   0.0370370
        k(    7) = (   0.0000000   0.3849002   0.0000000), wk =   0.0370370
        k(    8) = (   0.0000000   0.4490502   0.0000000), wk =   0.0370370
        k(    9) = (   0.0000000   0.5132002   0.0000000), wk =   0.0370370
        k(   10) = (   0.0000000  -0.5773503   0.0000000), wk =   0.0185185
        k(   11) = (   0.0555556   0.0962250   0.0000000), wk =   0.0370370
        k(   12) = (   0.0555556   0.1603751   0.0000000), wk =   0.0740741
        k(   13) = (   0.0555556   0.2245251   0.0000000), wk =   0.0740741
        k(   14) = (   0.0555556   0.2886751   0.0000000), wk =   0.0740741
        k(   15) = (   0.0555556   0.3528252   0.0000000), wk =   0.0740741
        k(   16) = (   0.0555556   0.4169752   0.0000000), wk =   0.0740741
        k(   17) = (   0.0555556   0.4811252   0.0000000), wk =   0.0740741
        k(   18) = (   0.0555556   0.5452753   0.0000000), wk =   0.0740741
        k(   19) = (   0.1111111   0.1924501   0.0000000), wk =   0.0370370
        k(   20) = (   0.1111111   0.2566001   0.0000000), wk =   0.0740741
        k(   21) = (   0.1111111   0.3207501   0.0000000), wk =   0.0740741
        k(   22) = (   0.1111111   0.3849002   0.0000000), wk =   0.0740741
        k(   23) = (   0.1111111   0.4490502   0.0000000), wk =   0.0740741
        k(   24) = (   0.1111111   0.5132002   0.0000000), wk =   0.0740741
        k(   25) = (   0.1111111   0.5773503   0.0000000), wk =   0.0370370
        k(   26) = (   0.1666667   0.2886751   0.0000000), wk =   0.0370370
        k(   27) = (   0.1666667   0.3528252   0.0000000), wk =   0.0740741
        k(   28) = (   0.1666667   0.4169752   0.0000000), wk =   0.0740741
        k(   29) = (   0.1666667   0.4811252   0.0000000), wk =   0.0740741
        k(   30) = (   0.1666667   0.5452753   0.0000000), wk =   0.0740741
        k(   31) = (   0.2222222   0.3849002   0.0000000), wk =   0.0370370
        k(   32) = (   0.2222222   0.4490502   0.0000000), wk =   0.0740741
        k(   33) = (   0.2222222   0.5132002   0.0000000), wk =   0.0740741
        k(   34) = (   0.2222222   0.5773503   0.0000000), wk =   0.0370370
        k(   35) = (   0.2777778   0.4811252   0.0000000), wk =   0.0370370
        k(   36) = (   0.2777778   0.5452753   0.0000000), wk =   0.0740741
        k(   37) = (   0.3333333   0.5773503   0.0000000), wk =   0.0123457

                       cryst. coord.
        k(    1) = (   0.0000000   0.0000000   0.0000000), wk =   0.0061728
        k(    2) = (   0.0000000   0.0555556   0.0000000), wk =   0.0370370
        k(    3) = (   0.0000000   0.1111111   0.0000000), wk =   0.0370370
        k(    4) = (   0.0000000   0.1666667   0.0000000), wk =   0.0370370
        k(    5) = (   0.0000000   0.2222222   0.0000000), wk =   0.0370370
        k(    6) = (   0.0000000   0.2777778   0.0000000), wk =   0.0370370
        k(    7) = (   0.0000000   0.3333333   0.0000000), wk =   0.0370370
        k(    8) = (   0.0000000   0.3888889   0.0000000), wk =   0.0370370
        k(    9) = (   0.0000000   0.4444444   0.0000000), wk =   0.0370370
        k(   10) = (   0.0000000  -0.5000000   0.0000000), wk =   0.0185185
        k(   11) = (   0.0555556   0.0555556   0.0000000), wk =   0.0370370
        k(   12) = (   0.0555556   0.1111111   0.0000000), wk =   0.0740741
        k(   13) = (   0.0555556   0.1666667   0.0000000), wk =   0.0740741
        k(   14) = (   0.0555556   0.2222222   0.0000000), wk =   0.0740741
        k(   15) = (   0.0555556   0.2777778   0.0000000), wk =   0.0740741
        k(   16) = (   0.0555556   0.3333333   0.0000000), wk =   0.0740741
        k(   17) = (   0.0555556   0.3888889   0.0000000), wk =   0.0740741
        k(   18) = (   0.0555556   0.4444444   0.0000000), wk =   0.0740741
        k(   19) = (   0.1111111   0.1111111   0.0000000), wk =   0.0370370
        k(   20) = (   0.1111111   0.1666667   0.0000000), wk =   0.0740741
        k(   21) = (   0.1111111   0.2222222   0.0000000), wk =   0.0740741
        k(   22) = (   0.1111111   0.2777778   0.0000000), wk =   0.0740741
        k(   23) = (   0.1111111   0.3333333   0.0000000), wk =   0.0740741
        k(   24) = (   0.1111111   0.3888889   0.0000000), wk =   0.0740741
        k(   25) = (   0.1111111   0.4444444   0.0000000), wk =   0.0370370
        k(   26) = (   0.1666667   0.1666667   0.0000000), wk =   0.0370370
        k(   27) = (   0.1666667   0.2222222   0.0000000), wk =   0.0740741
        k(   28) = (   0.1666667   0.2777778   0.0000000), wk =   0.0740741
        k(   29) = (   0.1666667   0.3333333   0.0000000), wk =   0.0740741
        k(   30) = (   0.1666667   0.3888889   0.0000000), wk =   0.0740741
        k(   31) = (   0.2222222   0.2222222   0.0000000), wk =   0.0370370
        k(   32) = (   0.2222222   0.2777778   0.0000000), wk =   0.0740741
        k(   33) = (   0.2222222   0.3333333   0.0000000), wk =   0.0740741
        k(   34) = (   0.2222222   0.3888889   0.0000000), wk =   0.0370370
        k(   35) = (   0.2777778   0.2777778   0.0000000), wk =   0.0370370
        k(   36) = (   0.2777778   0.3333333   0.0000000), wk =   0.0740741
        k(   37) = (   0.3333333   0.3333333   0.0000000), wk =   0.0123457

     Dense  grid:    35435 G-vectors     FFT dimensions: (  30,  30,  90)

     Smooth grid:     8973 G-vectors     FFT dimensions: (  24,  24,  60)

     Dynamical RAM for                 wfc:       0.14 MB

     Dynamical RAM for     wfc (w. buffer):       5.19 MB

     Dynamical RAM for           str. fact:       0.54 MB

     Dynamical RAM for           local pot:       0.00 MB

     Dynamical RAM for          nlocal pot:       0.27 MB

     Dynamical RAM for                qrad:       0.46 MB

     Dynamical RAM for          rho,v,vnew:       3.48 MB

     Dynamical RAM for               rhoin:       1.16 MB

     Dynamical RAM for            rho*nmix:       8.65 MB

     Dynamical RAM for           G-vectors:       2.10 MB

     Dynamical RAM for          h,s,v(r/c):       0.01 MB

     Dynamical RAM for          <psi|beta>:       0.00 MB

     Dynamical RAM for                 psi:       0.27 MB

     Dynamical RAM for                hpsi:       0.27 MB

     Dynamical RAM for                spsi:       0.27 MB

     Dynamical RAM for      wfcinit/wfcrot:       0.27 MB

     Dynamical RAM for           addusdens:      24.33 MB

     Estimated static dynamical RAM per process >      17.37 MB

     Estimated max dynamical RAM per process >      50.35 MB

     Check: negative core charge=   -0.000002

     Initial potential from superposition of free atoms

     starting charge       7.9999, renormalised to       8.0000
     Starting wfcs are    8 randomized atomic wfcs

     total cpu time spent up to now is        0.7 secs

     Self-consistent Calculation

     iteration #  1     ecut=    40.00 Ry     beta= 0.70
     Davidson diagonalization with overlap

---- Real-time Memory Report at c_bands before calling an iterative solver
            69 MiB given to the printing process from OS
             0 MiB allocation reported by mallinfo(arena+hblkhd)
          1604 MiB available memory on the node where the printing process lives
------------------
     ethr =  1.00E-02,  avg # of iterations =  7.1

     total cpu time spent up to now is        2.2 secs

     total energy              =     -23.90169085 Ry
     estimated scf accuracy    <       0.16845749 Ry

     iteration #  2     ecut=    40.00 Ry     beta= 0.70
     Davidson diagonalization with overlap

---- Real-time Memory Report at c_bands before calling an iterative solver
            81 MiB given to the printing process from OS
             0 MiB allocation reported by mallinfo(arena+hblkhd)
          1590 MiB available memory on the node where the printing process lives
------------------
     ethr =  2.11E-03,  avg # of iterations =  3.4

     total cpu time spent up to now is        3.1 secs

     total energy              =     -23.92429346 Ry
     estimated scf accuracy    <       0.00425857 Ry

     iteration #  3     ecut=    40.00 Ry     beta= 0.70
     Davidson diagonalization with overlap

---- Real-time Memory Report at c_bands before calling an iterative solver
            84 MiB given to the printing process from OS
             0 MiB allocation reported by mallinfo(arena+hblkhd)
          1593 MiB available memory on the node where the printing process lives
------------------
     c_bands:  1 eigenvalues not converged
     ethr =  5.32E-05,  avg # of iterations = 13.1

     negative rho (up, down):  1.844E-06 0.000E+00

     total cpu time spent up to now is        5.1 secs

     total energy              =     -23.92942764 Ry
     estimated scf accuracy    <       0.00136708 Ry

     iteration #  4     ecut=    40.00 Ry     beta= 0.70
     Davidson diagonalization with overlap

---- Real-time Memory Report at c_bands before calling an iterative solver
            84 MiB given to the printing process from OS
             0 MiB allocation reported by mallinfo(arena+hblkhd)
          1592 MiB available memory on the node where the printing process lives
------------------
     ethr =  1.71E-05,  avg # of iterations =  5.7

     negative rho (up, down):  1.101E-06 0.000E+00

     total cpu time spent up to now is        6.5 secs

     total energy              =     -23.92899350 Ry
     estimated scf accuracy    <       0.00261352 Ry

     iteration #  5     ecut=    40.00 Ry     beta= 0.70
     Davidson diagonalization with overlap

---- Real-time Memory Report at c_bands before calling an iterative solver
            84 MiB given to the printing process from OS
             0 MiB allocation reported by mallinfo(arena+hblkhd)
          1592 MiB available memory on the node where the printing process lives
------------------
     ethr =  1.71E-05,  avg # of iterations =  3.1

     negative rho (up, down):  1.012E-06 0.000E+00

     total cpu time spent up to now is        7.4 secs

     total energy              =     -23.92938706 Ry
     estimated scf accuracy    <       0.00000697 Ry

     iteration #  6     ecut=    40.00 Ry     beta= 0.70
     Davidson diagonalization with overlap

---- Real-time Memory Report at c_bands before calling an iterative solver
            84 MiB given to the printing process from OS
             0 MiB allocation reported by mallinfo(arena+hblkhd)
          1592 MiB available memory on the node where the printing process lives
------------------
     c_bands:  1 eigenvalues not converged
     c_bands:  1 eigenvalues not converged
     ethr =  8.71E-08,  avg # of iterations =  7.0

     negative rho (up, down):  1.056E-06 0.000E+00

     total cpu time spent up to now is        8.9 secs

     total energy              =     -23.92942939 Ry
     estimated scf accuracy    <       0.00001665 Ry

     iteration #  7     ecut=    40.00 Ry     beta= 0.70
     Davidson diagonalization with overlap

---- Real-time Memory Report at c_bands before calling an iterative solver
            84 MiB given to the printing process from OS
             0 MiB allocation reported by mallinfo(arena+hblkhd)
          1592 MiB available memory on the node where the printing process lives
------------------
     ethr =  8.71E-08,  avg # of iterations =  1.6

     negative rho (up, down):  1.118E-06 0.000E+00

     total cpu time spent up to now is        9.6 secs

     total energy              =     -23.92942892 Ry
     estimated scf accuracy    <       0.00000350 Ry

     iteration #  8     ecut=    40.00 Ry     beta= 0.70
     Davidson diagonalization with overlap

---- Real-time Memory Report at c_bands before calling an iterative solver
            85 MiB given to the printing process from OS
             0 MiB allocation reported by mallinfo(arena+hblkhd)
          1590 MiB available memory on the node where the printing process lives
------------------
     ethr =  4.38E-08,  avg # of iterations =  1.9

     negative rho (up, down):  1.151E-06 0.000E+00

     total cpu time spent up to now is       10.4 secs

     total energy              =     -23.92942887 Ry
     estimated scf accuracy    <       0.00000103 Ry

     iteration #  9     ecut=    40.00 Ry     beta= 0.70
     Davidson diagonalization with overlap

---- Real-time Memory Report at c_bands before calling an iterative solver
            85 MiB given to the printing process from OS
             0 MiB allocation reported by mallinfo(arena+hblkhd)
          1590 MiB available memory on the node where the printing process lives
------------------
     ethr =  1.29E-08,  avg # of iterations =  2.9

     negative rho (up, down):  1.148E-06 0.000E+00

     total cpu time spent up to now is       11.3 secs

     total energy              =     -23.92942915 Ry
     estimated scf accuracy    <       0.00000012 Ry

     iteration # 10     ecut=    40.00 Ry     beta= 0.70
     Davidson diagonalization with overlap

---- Real-time Memory Report at c_bands before calling an iterative solver
            85 MiB given to the printing process from OS
             0 MiB allocation reported by mallinfo(arena+hblkhd)
          1578 MiB available memory on the node where the printing process lives
------------------
     ethr =  1.49E-09,  avg # of iterations =  3.6

     negative rho (up, down):  1.153E-06 0.000E+00

     total cpu time spent up to now is       12.2 secs

     total energy              =     -23.92942917 Ry
     estimated scf accuracy    <       0.00000006 Ry

     iteration # 11     ecut=    40.00 Ry     beta= 0.70
     Davidson diagonalization with overlap

---- Real-time Memory Report at c_bands before calling an iterative solver
            86 MiB given to the printing process from OS
             0 MiB allocation reported by mallinfo(arena+hblkhd)
          1577 MiB available memory on the node where the printing process lives
------------------
     ethr =  7.67E-10,  avg # of iterations =  1.5

     negative rho (up, down):  1.151E-06 0.000E+00

     total cpu time spent up to now is       12.9 secs

     total energy              =     -23.92942918 Ry
     estimated scf accuracy    <       0.00000002 Ry

     iteration # 12     ecut=    40.00 Ry     beta= 0.70
     Davidson diagonalization with overlap

---- Real-time Memory Report at c_bands before calling an iterative solver
            86 MiB given to the printing process from OS
             0 MiB allocation reported by mallinfo(arena+hblkhd)
          1577 MiB available memory on the node where the printing process lives
------------------
     ethr =  2.87E-10,  avg # of iterations =  1.3

     negative rho (up, down):  1.152E-06 0.000E+00

     total cpu time spent up to now is       13.6 secs

     total energy              =     -23.92942918 Ry
     estimated scf accuracy    <       0.00000002 Ry

     iteration # 13     ecut=    40.00 Ry     beta= 0.70
     Davidson diagonalization with overlap

---- Real-time Memory Report at c_bands before calling an iterative solver
            86 MiB given to the printing process from OS
             0 MiB allocation reported by mallinfo(arena+hblkhd)
          1577 MiB available memory on the node where the printing process lives
------------------
     ethr =  2.87E-10,  avg # of iterations =  1.0

     negative rho (up, down):  1.152E-06 0.000E+00

     total cpu time spent up to now is       14.3 secs

     total energy              =     -23.92942918 Ry
     estimated scf accuracy    <       0.00000002 Ry

     iteration # 14     ecut=    40.00 Ry     beta= 0.70
     Davidson diagonalization with overlap

---- Real-time Memory Report at c_bands before calling an iterative solver
            86 MiB given to the printing process from OS
             0 MiB allocation reported by mallinfo(arena+hblkhd)
          1577 MiB available memory on the node where the printing process lives
------------------
     ethr =  2.44E-10,  avg # of iterations =  1.0

     negative rho (up, down):  1.152E-06 0.000E+00

     total cpu time spent up to now is       15.0 secs

     total energy              =     -23.92942918 Ry
     estimated scf accuracy    <       0.00000002 Ry

     iteration # 15     ecut=    40.00 Ry     beta= 0.70
     Davidson diagonalization with overlap

---- Real-time Memory Report at c_bands before calling an iterative solver
            86 MiB given to the printing process from OS
             0 MiB allocation reported by mallinfo(arena+hblkhd)
          1577 MiB available memory on the node where the printing process lives
------------------
     ethr =  1.98E-10,  avg # of iterations =  1.0

     negative rho (up, down):  1.153E-06 0.000E+00

     total cpu time spent up to now is       15.7 secs

     total energy              =     -23.92942917 Ry
     estimated scf accuracy    <       0.00000001 Ry

     iteration # 16     ecut=    40.00 Ry     beta= 0.70
     Davidson diagonalization with overlap

---- Real-time Memory Report at c_bands before calling an iterative solver
            86 MiB given to the printing process from OS
             0 MiB allocation reported by mallinfo(arena+hblkhd)
          1580 MiB available memory on the node where the printing process lives
------------------
     ethr =  1.67E-10,  avg # of iterations =  1.1

     negative rho (up, down):  1.154E-06 0.000E+00

     total cpu time spent up to now is       16.5 secs

     End of self-consistent calculation

          k = 0.0000 0.0000 0.0000 (  1133 PWs)   bands (ev):

   -18.7146  -7.0486  -2.4186  -2.4186   3.6476   6.9610   8.9042   8.9042

     occupation numbers 
     1.0000   1.0000   1.0000   1.0000   0.0000   0.0000   0.0000   0.0000

          k = 0.0000 0.0642 0.0000 (  1127 PWs)   bands (ev):

   -18.6420  -6.9610  -2.7090  -2.5753   3.7465   7.0554   8.9235   9.2190

     occupation numbers 
     1.0000   1.0000   1.0000   1.0000   0.0000   0.0000   0.0000   0.0000

          k = 0.0000 0.1283 0.0000 (  1120 PWs)   bands (ev):

   -18.4246  -6.6991  -3.5091  -2.9917   4.0430   7.3374   8.9534  10.1037

     occupation numbers 
     1.0000   1.0000   1.0000   1.0000   0.0000   0.0000   0.0000   0.0000

          k = 0.0000 0.1925 0.0000 (  1132 PWs)   bands (ev):

   -18.0634  -6.2661  -4.6627  -3.5519   4.5373   7.8004   8.9168   9.9390

     occupation numbers 
     1.0000   1.0000   1.0000   1.0000   0.0000   0.0000   0.0000   0.0000

          k = 0.0000 0.2566 0.0000 (  1114 PWs)   bands (ev):

   -17.5601  -6.0175  -5.6681  -4.1472   5.2285   8.3038   8.7436   8.7855

     occupation numbers 
     1.0000   1.0000   1.0000   1.0000   0.0000   0.0000   0.0000   0.0000

          k = 0.0000 0.3208 0.0000 (  1110 PWs)   bands (ev):

   -16.9179  -7.4610  -4.9170  -4.7015   6.1151   7.0458   8.5994   9.3328

     occupation numbers 
     1.0000   1.0000   1.0000   1.0000   0.0000   0.0000   0.0000   0.0000

          k = 0.0000 0.3849 0.0000 (  1118 PWs)   bands (ev):

   -16.1411  -8.9167  -5.1673  -4.0352   5.5046   7.1919   8.4136  10.3220

     occupation numbers 
     1.0000   1.0000   1.0000   1.0000   0.0000   0.0000   0.0000   0.0000

          k = 0.0000 0.4491 0.0000 (  1120 PWs)   bands (ev):

   -15.2379 -10.3309  -5.5158  -3.0741   4.0230   8.1967   8.5238  11.4625

     occupation numbers 
     1.0000   1.0000   1.0000   1.0000   0.0000   0.0000   0.0000   0.0000

          k = 0.0000 0.5132 0.0000 (  1128 PWs)   bands (ev):

   -14.2325 -11.6527  -5.7306  -2.1761   2.7943   8.1338   9.9412  12.6927

     occupation numbers 
     1.0000   1.0000   1.0000   1.0000   0.0000   0.0000   0.0000   0.0000

          k = 0.0000-0.5774 0.0000 (  1120 PWs)   bands (ev):

   -13.4319 -12.5601  -5.8031  -1.7440   2.2490   8.1006  11.5207  11.6115

     occupation numbers 
     1.0000   1.0000   1.0000   1.0000   0.0000   0.0000   0.0000   0.0000

          k = 0.0556 0.0962 0.0000 (  1121 PWs)   bands (ev):

   -18.4970  -6.7862  -3.2273  -2.8892   3.9442   7.2437   9.0122   9.5587

     occupation numbers 
     1.0000   1.0000   1.0000   1.0000   0.0000   0.0000   0.0000   0.0000

          k = 0.0556 0.1604 0.0000 (  1119 PWs)   bands (ev):

   -18.2077  -6.4387  -4.1515  -3.4310   4.3398   7.6174   9.1282  10.3595

     occupation numbers 
     1.0000   1.0000   1.0000   1.0000   0.0000   0.0000   0.0000   0.0000

          k = 0.0556 0.2245 0.0000 (  1128 PWs)   bands (ev):

   -17.7755  -5.9229  -5.3642  -4.0513   4.9328   8.1600   9.1214   9.1797

     occupation numbers 
     1.0000   1.0000   1.0000   1.0000   0.0000   0.0000   0.0000   0.0000

          k = 0.0556 0.2887 0.0000 (  1120 PWs)   bands (ev):

   -17.2027  -6.7379  -5.2473  -4.6522   5.7221   7.7184   8.9575   8.9939

     occupation numbers 
     1.0000   1.0000   1.0000   1.0000   0.0000   0.0000   0.0000   0.0000

          k = 0.0556 0.3528 0.0000 (  1114 PWs)   bands (ev):

   -16.4932  -8.1729  -5.1767  -4.4279   6.2247   6.7055   8.8159   9.8514

     occupation numbers 
     1.0000   1.0000   1.0000   1.0000   0.0000   0.0000   0.0000   0.0000

          k = 0.0556 0.4170 0.0000 (  1117 PWs)   bands (ev):

   -15.6528  -9.6002  -5.5917  -3.4974   4.7163   7.8734   8.6522  10.9081

     occupation numbers 
     1.0000   1.0000   1.0000   1.0000   0.0000   0.0000   0.0000   0.0000

          k = 0.0556 0.4811 0.0000 (  1119 PWs)   bands (ev):

   -14.6946 -10.9678  -5.8772  -2.5384   3.3409   8.4893   9.2702  12.0729

     occupation numbers 
     1.0000   1.0000   1.0000   1.0000   0.0000   0.0000   0.0000   0.0000

          k = 0.0556 0.5453 0.0000 (  1117 PWs)   bands (ev):

   -13.6831 -12.1889  -6.0224  -1.7974   2.3828   8.4295  10.8013  12.4955

     occupation numbers 
     1.0000   1.0000   1.0000   1.0000   0.0000   0.0000   0.0000   0.0000

          k = 0.1111 0.1925 0.0000 (  1133 PWs)   bands (ev):

   -17.8474  -6.0081  -5.0312  -4.1379   4.8343   8.0801   9.3732   9.5235

     occupation numbers 
     1.0000   1.0000   1.0000   1.0000   0.0000   0.0000   0.0000   0.0000

          k = 0.1111 0.2566 0.0000 (  1121 PWs)   bands (ev):

   -17.3457  -6.1493  -5.4137  -4.8784   5.5259   8.1396   8.7302   9.7661

     occupation numbers 
     1.0000   1.0000   1.0000   1.0000   0.0000   0.0000   0.0000   0.0000

          k = 0.1111 0.3208 0.0000 (  1124 PWs)   bands (ev):

   -16.7057  -7.4485  -5.5162  -4.6667   6.4129   6.7671   9.5332   9.7385

     occupation numbers 
     1.0000   1.0000   1.0000   1.0000   0.0000   0.0000   0.0000   0.0000

          k = 0.1111 0.3849 0.0000 (  1130 PWs)   bands (ev):

   -15.9323  -8.8227  -6.0227  -3.7889   5.3238   7.4922   9.5997  10.4828

     occupation numbers 
     1.0000   1.0000   1.0000   1.0000   0.0000   0.0000   0.0000   0.0000

          k = 0.1111 0.4491 0.0000 (  1117 PWs)   bands (ev):

   -15.0342 -10.1897  -6.3902  -2.8287   3.9161   8.7536   9.4634  11.5222

     occupation numbers 
     1.0000   1.0000   1.0000   1.0000   0.0000   0.0000   0.0000   0.0000

          k = 0.1111 0.5132 0.0000 (  1112 PWs)   bands (ev):

   -14.0369 -11.4825  -6.6132  -1.9223   2.7230   9.3394  10.2262  12.5085

     occupation numbers 
     1.0000   1.0000   1.0000   1.0000   0.0000   0.0000   0.0000   0.0000

          k = 0.1111 0.5774 0.0000 (  1114 PWs)   bands (ev):

   -13.2482 -12.3718  -6.6880  -1.4778   2.1799   9.3092  11.7752  11.8815

     occupation numbers 
     1.0000   1.0000   1.0000   1.0000   0.0000   0.0000   0.0000   0.0000

          k = 0.1667 0.2887 0.0000 (  1127 PWs)   bands (ev):

   -16.7767  -7.0465  -5.8028  -4.7468   6.3151   6.9780   9.4149  10.5319

     occupation numbers 
     1.0000   1.0000   1.0000   1.0000   0.0000   0.0000   0.0000   0.0000

          k = 0.1667 0.3528 0.0000 (  1123 PWs)   bands (ev):

   -16.0727  -8.1450  -6.5629  -3.9371   5.6977   7.2980  10.2413  10.8486

     occupation numbers 
     1.0000   1.0000   1.0000   1.0000   0.0000   0.0000   0.0000   0.0000

          k = 0.1667 0.4170 0.0000 (  1124 PWs)   bands (ev):

   -15.2409  -9.3947  -7.0875  -3.0140   4.3760   8.4699  10.7934  11.1240

     occupation numbers 
     1.0000   1.0000   1.0000   1.0000   0.0000   0.0000   0.0000   0.0000

          k = 0.1667 0.4811 0.0000 (  1115 PWs)   bands (ev):

   -14.2957 -10.6694  -7.4182  -2.0497   3.1206   9.8197  10.6855  11.8896

     occupation numbers 
     1.0000   1.0000   1.0000   1.0000   0.0000   0.0000   0.0000   0.0000

          k = 0.1667 0.5453 0.0000 (  1110 PWs)   bands (ev):

   -13.3053 -11.8370  -7.5799  -1.2770   2.1937  10.6005  11.3483  12.2946

     occupation numbers 
     1.0000   1.0000   1.0000   1.0000   0.0000   0.0000   0.0000   0.0000

          k = 0.2222 0.3849 0.0000 (  1105 PWs)   bands (ev):

   -15.3101  -8.9205  -7.5400  -3.0774   4.5567   8.3730  10.9729  11.9495

     occupation numbers 
     1.0000   1.0000   1.0000   1.0000   0.0000   0.0000   0.0000   0.0000

          k = 0.2222 0.4491 0.0000 (  1117 PWs)   bands (ev):

   -14.4288  -9.9158  -8.1926  -2.1263   3.3916   9.6295  11.5059  12.1921

     occupation numbers 
     1.0000   1.0000   1.0000   1.0000   0.0000   0.0000   0.0000   0.0000

          k = 0.2222 0.5132 0.0000 (  1110 PWs)   bands (ev):

   -13.4573 -11.0386  -8.5224  -1.1899   2.3191  11.0455  11.6681  12.1101

     occupation numbers 
     1.0000   1.0000   1.0000   1.0000   0.0000   0.0000   0.0000   0.0000

          k = 0.2222 0.5774 0.0000 (  1110 PWs)   bands (ev):

   -12.6979 -11.8610  -8.6231  -0.6847   1.7666  11.6682  12.0501  12.4898

     occupation numbers 
     1.0000   1.0000   1.0000   1.0000   0.0000   0.0000   0.0000   0.0000

          k = 0.2778 0.4811 0.0000 (  1101 PWs)   bands (ev):

   -13.5153 -10.5180  -9.0912  -1.1691   2.3886  10.9506  11.4251  13.4204

     occupation numbers 
     1.0000   1.0000   1.0000   1.0000   0.0000   0.0000   0.0000   0.0000

          k = 0.2778 0.5453 0.0000 (  1105 PWs)   bands (ev):

   -12.5686 -11.3400  -9.5219  -0.2872   1.4891  11.2314  12.3619  13.3287

     occupation numbers 
     1.0000   1.0000   1.0000   1.0000   0.0000   0.0000   0.0000   0.0000

          k = 0.3333 0.5774 0.0000 (  1137 PWs)   bands (ev):

   -11.7847 -11.7847 -10.0035   0.6168   0.6168  11.0435  13.3625  13.3628

     occupation numbers 
     1.0000   1.0000   1.0000   0.5000   0.5000   0.0000   0.0000   0.0000

     the Fermi energy is     0.6168 ev

!    total energy              =     -23.92942917 Ry
     estimated scf accuracy    <          3.6E-09 Ry
     smearing contrib. (-TS)   =      -0.00006965 Ry
     internal energy E=F+TS    =     -23.92935952 Ry

     The total energy is F=E-TS. E is the sum of the following terms:
     one-electron contribution =     -56.30628512 Ry
     hartree contribution      =      30.32392443 Ry
     xc contribution           =      -8.25764842 Ry
     ewald contribution        =      10.31064959 Ry

     convergence has been achieved in  16 iterations

     Writing all to output data dir ./tmp/graphene/graphene.save/

     init_run     :      0.59s CPU      0.64s WALL (       1 calls)
     electrons    :     15.54s CPU     15.77s WALL (       1 calls)

     Called by init_run:
     wfcinit      :      0.28s CPU      0.28s WALL (       1 calls)
     wfcinit:atom :      0.01s CPU      0.01s WALL (      37 calls)
     wfcinit:wfcr :      0.24s CPU      0.24s WALL (      37 calls)
     potinit      :      0.02s CPU      0.02s WALL (       1 calls)
     hinit0       :      0.25s CPU      0.29s WALL (       1 calls)

     Called by electrons:
     c_bands      :     12.60s CPU     12.79s WALL (      16 calls)
     sum_band     :      2.50s CPU      2.54s WALL (      16 calls)
     v_of_rho     :      0.11s CPU      0.11s WALL (      17 calls)
     v_h          :      0.03s CPU      0.03s WALL (      17 calls)
     v_xc         :      0.08s CPU      0.08s WALL (      17 calls)
     newd         :      0.25s CPU      0.26s WALL (      17 calls)
     mix_rho      :      0.06s CPU      0.06s WALL (      16 calls)

     Called by c_bands:
     init_us_2    :      0.30s CPU      0.31s WALL (    1221 calls)
     init_us_2:cp :      0.30s CPU      0.31s WALL (    1221 calls)
     cegterg      :     12.23s CPU     12.42s WALL (     592 calls)

     Called by sum_band:
     sum_band:wei :      0.00s CPU      0.00s WALL (      16 calls)
     sum_band:loo :      2.15s CPU      2.17s WALL (      16 calls)
     sum_band:buf :      0.01s CPU      0.01s WALL (     592 calls)
     sum_band:ini :      0.15s CPU      0.15s WALL (     592 calls)
     sum_band:cal :      0.04s CPU      0.04s WALL (     592 calls)
     sum_band:bec :      0.00s CPU      0.00s WALL (     592 calls)
     addusdens    :      0.27s CPU      0.28s WALL (      16 calls)
                                        0.00s GPU  (      16 calls)
     addusd:skk   :      0.01s CPU      0.01s WALL (      16 calls)
                                        0.00s GPU  (      16 calls)

     Called by *egterg:
     cdiaghg      :      0.27s CPU      0.28s WALL (    2674 calls)
     cegterg:over :      0.19s CPU      0.19s WALL (    2082 calls)
     cegterg:upda :      0.13s CPU      0.13s WALL (    2082 calls)
     cegterg:last :      0.18s CPU      0.18s WALL (    1383 calls)
     h_psi        :     11.31s CPU     11.47s WALL (    2711 calls)
     s_psi        :      0.12s CPU      0.12s WALL (    2711 calls)
     g_psi        :      0.10s CPU      0.10s WALL (    2082 calls)

     Called by h_psi:
     h_psi:calbec :      0.15s CPU      0.15s WALL (    2711 calls)
     vloc_psi     :     10.98s CPU     11.14s WALL (    2711 calls)
     add_vuspsi   :      0.12s CPU      0.13s WALL (    2711 calls)

     General routines
     calbec       :      0.18s CPU      0.19s WALL (    3303 calls)
     fft          :      0.09s CPU      0.13s WALL (     100 calls)
     ffts         :      0.01s CPU      0.01s WALL (      33 calls)
     fftw         :     10.78s CPU     10.94s WALL (   33116 calls)
     interpolate  :      0.03s CPU      0.03s WALL (      17 calls)

     Parallel routines

     PWSCF        :     16.19s CPU     16.49s WALL


   This run was terminated on:  14:18:46  29Jun2023            

=------------------------------------------------------------------------------=
   JOB DONE.
=------------------------------------------------------------------------------=
