
     Program BANDS v.7.2 starts on  4Jul2023 at 12:45:53 

     This program is part of the open-source Quantum ESPRESSO suite
     for quantum simulation of materials; please cite
         "P. Giannozzi et al., J. Phys.:Condens. Matter 21 395502 (2009);
         "P. Giannozzi et al., J. Phys.:Condens. Matter 29 465901 (2017);
         "P. Giannozzi et al., J. Chem. Phys. 152 154105 (2020);
          URL http://www.quantum-espresso.org", 
     in publications or presentations arising from this work. More details at
     http://www.quantum-espresso.org/quote

     Parallel version (MPI), running on     1 processors

     MPI processes distributed on     1 nodes
     1065 MiB available memory on the printing compute node when the environment starts


     Reading xml data from directory:

     ./tmp/graphene/graphene.save/

     IMPORTANT: XC functional enforced from input :
     Exchange-correlation= PZ
                           (   1   1   0   0   0   0   0)
     Any further DFT definition will be discarded
     Please, verify this is what you really want


     G-vector sticks info
     --------------------
     sticks:   dense  smooth     PW     G-vecs:    dense   smooth      PW
     Sum         583     241     85                34703     8875    1651

     Using Slab Decomposition


     Check: negative core charge=   -0.000002

     negative rho (up, down):  1.175E-06 0.000E+00
     Reading collected, re-writing distributed wavefunctions
     high-symmetry point:  0.0000 0.0000 0.0000   x coordinate   0.0000
     high-symmetry point:  0.3333 0.5774 0.0000   x coordinate   0.6667
     high-symmetry point:  0.0000 0.5774 0.0000   x coordinate   1.0000
     high-symmetry point:  0.0000 0.0000 0.0000   x coordinate   1.5774

     Plottable bands (eV) written to file graphene-bands.dat.gnu
     Bands written to file graphene-bands.dat

 **************************************************************************

                    xk=(   0.00000,   0.00000,   0.00000  )

     point group D_6h(6/mmm)
     there are 12 classes
     the character table:

       E     2C6   2C3   C2    3C2'  3C2'' i     2S3   2S6   s_h   3s_d  3s_v 
A_1g   1.00  1.00  1.00  1.00  1.00  1.00  1.00  1.00  1.00  1.00  1.00  1.00
A_2g   1.00  1.00  1.00  1.00 -1.00 -1.00  1.00  1.00  1.00  1.00 -1.00 -1.00
B_1g   1.00 -1.00  1.00 -1.00  1.00 -1.00  1.00 -1.00  1.00 -1.00  1.00 -1.00
B_2g   1.00 -1.00  1.00 -1.00 -1.00  1.00  1.00 -1.00  1.00 -1.00 -1.00  1.00
E_1g   2.00  1.00 -1.00 -2.00  0.00  0.00  2.00  1.00 -1.00 -2.00  0.00  0.00
E_2g   2.00 -1.00 -1.00  2.00  0.00  0.00  2.00 -1.00 -1.00  2.00  0.00  0.00
A_1u   1.00  1.00  1.00  1.00  1.00  1.00 -1.00 -1.00 -1.00 -1.00 -1.00 -1.00
A_2u   1.00  1.00  1.00  1.00 -1.00 -1.00 -1.00 -1.00 -1.00 -1.00  1.00  1.00
B_1u   1.00 -1.00  1.00 -1.00  1.00 -1.00 -1.00  1.00 -1.00  1.00 -1.00  1.00
B_2u   1.00 -1.00  1.00 -1.00 -1.00  1.00 -1.00  1.00 -1.00  1.00  1.00 -1.00
E_1u   2.00  1.00 -1.00 -2.00  0.00  0.00 -2.00 -1.00  1.00  2.00  0.00  0.00
E_2u   2.00 -1.00 -1.00  2.00  0.00  0.00 -2.00  1.00  1.00 -2.00  0.00  0.00

     the symmetry operations in each class and the name of the first element:

     E        1
                                                                 
     2C6      5    6
                                                                 
     2C3      7    8
                                                                 
     C2       2
                                                                 
     3C2'     4   12   11
                                                                 
     3C2''    3    9   10
                                                                 
     i       13
                                                                 
     2S3     17   18
                                                                 
     2S6     19   20
                                                                 
     s_h     14
                                                                 
     3s_d    16   24   23
                                                                 
     3s_v    15   21   22
                                                                 

     Band symmetry, D_6h(6/mmm) point group:

     e(  1 -  1) =    -18.73461  eV     1   --> A_1g           
     e(  2 -  2) =     -7.04979  eV     1   --> A_2u           
     e(  3 -  4) =     -2.30874  eV     2   --> E_2g           
     e(  5 -  5) =      3.69948  eV     1   --> A_1g           
     e(  6 -  6) =      7.05589  eV     1   --> A_2u           
     e(  7 -  8) =      9.11146  eV     2   --> E_1u           

 **************************************************************************

 **************************************************************************

                    xk=(   0.01667,   0.02887,   0.00000  )

     point group C_2v (mm2) 
     there are  4 classes
     the character table:

       E     C2    s_v   s_v' 
A_1    1.00  1.00  1.00  1.00
A_2    1.00  1.00 -1.00 -1.00
B_1    1.00 -1.00  1.00 -1.00
B_2    1.00 -1.00 -1.00  1.00

     the symmetry operations in each class and the name of the first element:

     E        1
                                                                 
     C2       2
                                                                 
     s_v      3
                                                                 
     s_v'     4
                                                                 

     Band symmetry, C_2v (mm2)  point group:

     e(  1 -  1) =    -18.71484  eV     1   --> A_1  D_1  S_1  
     e(  2 -  2) =     -7.02582  eV     1   --> B_2  D_4  S_4  
     e(  3 -  3) =     -2.38880  eV     1   --> B_1  D_3  S_3  
     e(  4 -  4) =     -2.35311  eV     1   --> A_1  D_1  S_1  
     e(  5 -  5) =      3.72643  eV     1   --> A_1  D_1  S_1  
     e(  6 -  6) =      7.08168  eV     1   --> B_2  D_4  S_4  
     e(  7 -  7) =      9.11424  eV     1   --> A_1  D_1  S_1  
     e(  8 -  8) =      9.19810  eV     1   --> B_1  D_3  S_3  

 **************************************************************************

 **************************************************************************

                    xk=(   0.03333,   0.05774,   0.00000  )

     Band symmetry, C_2v (mm2)  point group:

     e(  1 -  1) =    -18.65551  eV     1   --> A_1  D_1  S_1  
     e(  2 -  2) =     -6.95397  eV     1   --> B_2  D_4  S_4  
     e(  3 -  3) =     -2.61982  eV     1   --> B_1  D_3  S_3  
     e(  4 -  4) =     -2.48452  eV     1   --> A_1  D_1  S_1  
     e(  5 -  5) =      3.80729  eV     1   --> A_1  D_1  S_1  
     e(  6 -  6) =      7.15896  eV     1   --> B_2  D_4  S_4  
     e(  7 -  7) =      9.13408  eV     1   --> A_1  D_1  S_1  
     e(  8 -  8) =      9.44627  eV     1   --> B_1  D_3  S_3  

 **************************************************************************

 **************************************************************************

                    xk=(   0.05000,   0.08660,   0.00000  )

     Band symmetry, C_2v (mm2)  point group:

     e(  1 -  1) =    -18.55671  eV     1   --> A_1  D_1  S_1  
     e(  2 -  2) =     -6.83444  eV     1   --> B_2  D_4  S_4  
     e(  3 -  3) =     -2.97912  eV     1   --> B_1  D_3  S_3  
     e(  4 -  4) =     -2.69857  eV     1   --> A_1  D_1  S_1  
     e(  5 -  5) =      3.94210  eV     1   --> A_1  D_1  S_1  
     e(  6 -  6) =      7.28751  eV     1   --> B_2  D_4  S_4  
     e(  7 -  7) =      9.18392  eV     1   --> A_1  D_1  S_1  
     e(  8 -  8) =      9.63149  eV     1   --> A_1  D_1  S_1  

 **************************************************************************

 **************************************************************************

                    xk=(   0.06667,   0.11547,   0.00000  )

     Band symmetry, C_2v (mm2)  point group:

     e(  1 -  1) =    -18.41858  eV     1   --> A_1  D_1  S_1  
     e(  2 -  2) =     -6.66761  eV     1   --> B_2  D_4  S_4  
     e(  3 -  3) =     -3.43715  eV     1   --> B_1  D_3  S_3  
     e(  4 -  4) =     -2.98797  eV     1   --> A_1  D_1  S_1  
     e(  5 -  5) =      4.13091  eV     1   --> A_1  D_1  S_1  
     e(  6 -  6) =      7.46689  eV     1   --> B_2  D_4  S_4  
     e(  7 -  7) =      9.27310  eV     1   --> A_1  D_1  S_1  
     e(  8 -  8) =      9.83001  eV     1   --> A_1  D_1  S_1  

 **************************************************************************

 **************************************************************************

                    xk=(   0.08333,   0.14434,   0.00000  )

     Band symmetry, C_2v (mm2)  point group:

     e(  1 -  1) =    -18.24130  eV     1   --> A_1  D_1  S_1  
     e(  2 -  2) =     -6.45400  eV     1   --> B_2  D_4  S_4  
     e(  3 -  3) =     -3.96525  eV     1   --> B_1  D_3  S_3  
     e(  4 -  4) =     -3.34356  eV     1   --> A_1  D_1  S_1  
     e(  5 -  5) =      4.37371  eV     1   --> A_1  D_1  S_1  
     e(  6 -  6) =      7.69643  eV     1   --> B_2  D_4  S_4  
     e(  7 -  7) =      9.40582  eV     1   --> A_1  D_1  S_1  
     e(  8 -  8) =     10.07443  eV     1   --> A_1  D_1  S_1  

 **************************************************************************

 **************************************************************************

                    xk=(   0.10000,   0.17321,   0.00000  )

     Band symmetry, C_2v (mm2)  point group:

     e(  1 -  1) =    -18.02513  eV     1   --> A_1  D_1  S_1  
     e(  2 -  2) =     -6.19432  eV     1   --> B_2  D_4  S_4  
     e(  3 -  3) =     -4.53892  eV     1   --> B_1  D_3  S_3  
     e(  4 -  4) =     -3.75501  eV     1   --> A_1  D_1  S_1  
     e(  5 -  5) =      4.67049  eV     1   --> A_1  D_1  S_1  
     e(  6 -  6) =      7.97514  eV     1   --> B_2  D_4  S_4  
     e(  7 -  7) =      9.58431  eV     1   --> A_1  D_1  S_1  
     e(  8 -  8) =     10.05602  eV     1   --> A_2  D_2  S_2  

 **************************************************************************

 **************************************************************************

                    xk=(   0.11667,   0.20207,   0.00000  )

     Band symmetry, C_2v (mm2)  point group:

     e(  1 -  1) =    -17.77033  eV     1   --> A_1  D_1  S_1  
     e(  2 -  2) =     -5.88951  eV     1   --> B_2  D_4  S_4  
     e(  3 -  3) =     -5.13853  eV     1   --> B_1  D_3  S_3  
     e(  4 -  4) =     -4.21113  eV     1   --> A_1  D_1  S_1  
     e(  5 -  5) =      5.02115  eV     1   --> A_1  D_1  S_1  
     e(  6 -  6) =      8.30154  eV     1   --> B_2  D_4  S_4  
     e(  7 -  7) =      9.38111  eV     1   --> A_2  D_2  S_2  
     e(  8 -  8) =      9.80975  eV     1   --> A_1  D_1  S_1  

 **************************************************************************

 **************************************************************************

                    xk=(   0.13333,   0.23094,   0.00000  )

     Band symmetry, C_2v (mm2)  point group:

     e(  1 -  1) =    -17.47736  eV     1   --> A_1  D_1  S_1  
     e(  2 -  2) =     -5.74941  eV     1   --> B_1  D_3  S_3  
     e(  3 -  3) =     -5.54080  eV     1   --> B_2  D_4  S_4  
     e(  4 -  4) =     -4.70121  eV     1   --> A_1  D_1  S_1  
     e(  5 -  5) =      5.42554  eV     1   --> A_1  D_1  S_1  
     e(  6 -  6) =      8.66595  eV     1   --> A_2  D_2  S_2  
     e(  7 -  7) =      8.67341  eV     1   --> B_2  D_4  S_4  
     e(  8 -  8) =     10.08155  eV     1   --> A_1  D_1  S_1  

 **************************************************************************

 **************************************************************************

                    xk=(   0.15000,   0.25981,   0.00000  )

     Band symmetry, C_2v (mm2)  point group:

     e(  1 -  1) =    -17.14671  eV     1   --> A_1  D_1  S_1  
     e(  2 -  2) =     -6.36050  eV     1   --> B_1  D_3  S_3  
     e(  3 -  3) =     -5.21493  eV     1   --> A_1  D_1  S_1  
     e(  4 -  4) =     -5.14973  eV     1   --> B_2  D_4  S_4  
     e(  5 -  5) =      5.88341  eV     1   --> A_1  D_1  S_1  
     e(  6 -  6) =      7.92591  eV     1   --> A_2  D_2  S_2  
     e(  7 -  7) =      9.08731  eV     1   --> B_2  D_4  S_4  
     e(  8 -  8) =     10.39788  eV     1   --> A_1  D_1  S_1  

 **************************************************************************

 **************************************************************************

                    xk=(   0.16667,   0.28868,   0.00000  )

     Band symmetry, C_2v (mm2)  point group:

     e(  1 -  1) =    -16.77900  eV     1   --> A_1  D_1  S_1  
     e(  2 -  2) =     -6.96359  eV     1   --> B_1  D_3  S_3  
     e(  3 -  3) =     -5.74288  eV     1   --> A_1  D_1  S_1  
     e(  4 -  4) =     -4.71828  eV     1   --> B_2  D_4  S_4  
     e(  5 -  5) =      6.39445  eV     1   --> A_1  D_1  S_1  
     e(  6 -  6) =      7.17444  eV     1   --> A_2  D_2  S_2  
     e(  7 -  7) =      9.53775  eV     1   --> B_2  D_4  S_4  
     e(  8 -  8) =     10.75598  eV     1   --> A_1  D_1  S_1  

 **************************************************************************

 **************************************************************************

                    xk=(   0.18333,   0.31754,   0.00000  )

     Band symmetry, C_2v (mm2)  point group:

     e(  1 -  1) =    -16.37506  eV     1   --> A_1  D_1  S_1  
     e(  2 -  2) =     -7.55247  eV     1   --> B_1  D_3  S_3  
     e(  3 -  3) =     -6.27649  eV     1   --> A_1  D_1  S_1  
     e(  4 -  4) =     -4.24896  eV     1   --> B_2  D_4  S_4  
     e(  5 -  5) =      6.42259  eV     1   --> A_2  D_2  S_2  
     e(  6 -  6) =      6.95819  eV     1   --> A_1  D_1  S_1  
     e(  7 -  7) =     10.01537  eV     1   --> B_2  D_4  S_4  
     e(  8 -  8) =     11.15232  eV     1   --> A_1  D_1  S_1  

 **************************************************************************

 **************************************************************************

                    xk=(   0.20000,   0.34641,   0.00000  )

     Band symmetry, C_2v (mm2)  point group:

     e(  1 -  1) =    -15.93595  eV     1   --> A_1  D_1  S_1  
     e(  2 -  2) =     -8.12262  eV     1   --> B_1  D_3  S_3  
     e(  3 -  3) =     -6.80833  eV     1   --> A_1  D_1  S_1  
     e(  4 -  4) =     -3.74494  eV     1   --> B_2  D_4  S_4  
     e(  5 -  5) =      5.67963  eV     1   --> A_2  D_2  S_2  
     e(  6 -  6) =      7.57393  eV     1   --> A_1  D_1  S_1  
     e(  7 -  7) =     10.50357  eV     1   --> B_2  D_4  S_4  
     e(  8 -  8) =     11.58146  eV     1   --> A_1  D_1  S_1  

 **************************************************************************

 **************************************************************************

                    xk=(   0.21667,   0.37528,   0.00000  )

     Band symmetry, C_2v (mm2)  point group:

     e(  1 -  1) =    -15.46310  eV     1   --> A_1  D_1  S_1  
     e(  2 -  2) =     -8.67052  eV     1   --> B_1  D_3  S_3  
     e(  3 -  3) =     -7.33160  eV     1   --> A_1  D_1  S_1  
     e(  4 -  4) =     -3.21036  eV     1   --> B_2  D_4  S_4  
     e(  5 -  5) =      4.95305  eV     1   --> A_2  D_2  S_2  
     e(  6 -  6) =      8.24066  eV     1   --> A_1  D_1  S_1  
     e(  7 -  7) =     10.97141  eV     1   --> B_2  D_4  S_4  
     e(  8 -  8) =     12.03621  eV     1   --> A_1  D_1  S_1  

 **************************************************************************

 **************************************************************************

                    xk=(   0.23333,   0.40415,   0.00000  )

     Band symmetry, C_2v (mm2)  point group:

     e(  1 -  1) =    -14.95845  eV     1   --> A_1  D_1  S_1  
     e(  2 -  2) =     -9.19359  eV     1   --> B_1  D_3  S_3  
     e(  3 -  3) =     -7.84016  eV     1   --> A_1  D_1  S_1  
     e(  4 -  4) =     -2.65047  eV     1   --> B_2  D_4  S_4  
     e(  5 -  5) =      4.24898  eV     1   --> A_2  D_2  S_2  
     e(  6 -  6) =      8.95680  eV     1   --> A_1  D_1  S_1  
     e(  7 -  7) =     11.36286  eV     1   --> B_2  D_4  S_4  
     e(  8 -  8) =     12.50509  eV     1   --> A_1  D_1  S_1  

 **************************************************************************

 **************************************************************************

                    xk=(   0.25000,   0.43301,   0.00000  )

     Band symmetry, C_2v (mm2)  point group:

     e(  1 -  1) =    -14.42477  eV     1   --> A_1  D_1  S_1  
     e(  2 -  2) =     -9.68988  eV     1   --> B_1  D_3  S_3  
     e(  3 -  3) =     -8.32812  eV     1   --> A_1  D_1  S_1  
     e(  4 -  4) =     -2.07198  eV     1   --> B_2  D_4  S_4  
     e(  5 -  5) =      3.57234  eV     1   --> A_2  D_2  S_2  
     e(  6 -  6) =      9.71971  eV     1   --> A_1  D_1  S_1  
     e(  7 -  7) =     11.59791  eV     1   --> B_2  D_4  S_4  
     e(  8 -  8) =     12.97101  eV     1   --> A_1  D_1  S_1  

 **************************************************************************

 **************************************************************************

                    xk=(   0.26667,   0.46188,   0.00000  )

     Band symmetry, C_2v (mm2)  point group:

     e(  1 -  1) =    -13.86628  eV     1   --> A_1  D_1  S_1  
     e(  2 -  2) =    -10.15775  eV     1   --> B_1  D_3  S_3  
     e(  3 -  3) =     -8.78895  eV     1   --> A_1  D_1  S_1  
     e(  4 -  4) =     -1.48343  eV     1   --> B_2  D_4  S_4  
     e(  5 -  5) =      2.92734  eV     1   --> A_2  D_2  S_2  
     e(  6 -  6) =     10.52473  eV     1   --> A_1  D_1  S_1  
     e(  7 -  7) =     11.63057  eV     1   --> B_2  D_4  S_4  
     e(  8 -  8) =     13.40704  eV     1   --> A_1  D_1  S_1  

 **************************************************************************

 **************************************************************************

                    xk=(   0.28333,   0.49075,   0.00000  )

     Band symmetry, C_2v (mm2)  point group:

     e(  1 -  1) =    -13.29030  eV     1   --> A_1  D_1  S_1  
     e(  2 -  2) =    -10.59610  eV     1   --> B_1  D_3  S_3  
     e(  3 -  3) =     -9.21431  eV     1   --> A_1  D_1  S_1  
     e(  4 -  4) =     -0.89563  eV     1   --> B_2  D_4  S_4  
     e(  5 -  5) =      2.31722  eV     1   --> A_2  D_2  S_2  
     e(  6 -  6) =     11.36259  eV     1   --> A_1  D_1  S_1  
     e(  7 -  7) =     11.51496  eV     1   --> B_2  D_4  S_4  
     e(  8 -  8) =     13.76647  eV     1   -->   ?

 **************************************************************************

 **************************************************************************

                    xk=(   0.30000,   0.51962,   0.00000  )

     Band symmetry, C_2v (mm2)  point group:

     e(  1 -  1) =    -12.71105  eV     1   --> A_1  D_1  S_1  
     e(  2 -  2) =    -11.00403  eV     1   --> B_1  D_3  S_3  
     e(  3 -  3) =     -9.58986  eV     1   --> A_1  D_1  S_1  
     e(  4 -  4) =     -0.32181  eV     1   --> B_2  D_4  S_4  
     e(  5 -  5) =      1.74469  eV     1   --> A_2  D_2  S_2  
     e(  6 -  6) =     11.35256  eV     1   --> B_2  D_4  S_4  
     e(  7 -  7) =     12.21243  eV     1   --> A_1  D_1  S_1  
     e(  8 -  8) =     13.84292  eV     1   --> B_1  D_3  S_3  

 **************************************************************************

 **************************************************************************

                    xk=(   0.31667,   0.54848,   0.00000  )

     Band symmetry, C_2v (mm2)  point group:

     e(  1 -  1) =    -12.16147  eV     1   --> A_1  D_1  S_1  
     e(  2 -  2) =    -11.38080  eV     1   --> B_1  D_3  S_3  
     e(  3 -  3) =     -9.88362  eV     1   --> A_1  D_1  S_1  
     e(  4 -  4) =      0.22262  eV     1   --> B_2  D_4  S_4  
     e(  5 -  5) =      1.21199  eV     1   --> A_2  D_2  S_2  
     e(  6 -  6) =     11.22204  eV     1   --> B_2  D_4  S_4  
     e(  7 -  7) =     13.01716  eV     1   --> A_1  D_1  S_1  
     e(  8 -  8) =     13.75132  eV     1   --> B_1  D_3  S_3  

 **************************************************************************

 **************************************************************************

                    xk=(   0.33333,   0.57735,   0.00000  )

     zone border point and non-symmorphic group 
     symmetry decomposition not available

 **************************************************************************

 **************************************************************************

                    xk=(   0.30000,   0.57735,   0.00000  )

     zone border point and non-symmorphic group 
     symmetry decomposition not available

 **************************************************************************

 **************************************************************************

                    xk=(   0.26667,   0.57735,   0.00000  )

     zone border point and non-symmorphic group 
     symmetry decomposition not available

 **************************************************************************

 **************************************************************************

                    xk=(   0.23333,   0.57735,   0.00000  )

     zone border point and non-symmorphic group 
     symmetry decomposition not available

 **************************************************************************

 **************************************************************************

                    xk=(   0.20000,   0.57735,   0.00000  )

     zone border point and non-symmorphic group 
     symmetry decomposition not available

 **************************************************************************

 **************************************************************************

                    xk=(   0.16667,   0.57735,   0.00000  )

     zone border point and non-symmorphic group 
     symmetry decomposition not available

 **************************************************************************

 **************************************************************************

                    xk=(   0.13333,   0.57735,   0.00000  )

     zone border point and non-symmorphic group 
     symmetry decomposition not available

 **************************************************************************

 **************************************************************************

                    xk=(   0.10000,   0.57735,   0.00000  )

     zone border point and non-symmorphic group 
     symmetry decomposition not available

 **************************************************************************

 **************************************************************************

                    xk=(   0.06667,   0.57735,   0.00000  )

     zone border point and non-symmorphic group 
     symmetry decomposition not available

 **************************************************************************

 **************************************************************************

                    xk=(   0.03333,   0.57735,   0.00000  )

     zone border point and non-symmorphic group 
     symmetry decomposition not available

 **************************************************************************

 **************************************************************************

                    xk=(   0.00000,   0.57735,   0.00000  )

     zone border point and non-symmorphic group 
     symmetry decomposition not available

 **************************************************************************

 **************************************************************************

                    xk=(   0.00000,   0.54339,   0.00000  )

     point group C_2v (mm2) 
     there are  4 classes
     the character table:

       E     C2    s_v   s_v' 
A_1    1.00  1.00  1.00  1.00
A_2    1.00  1.00 -1.00 -1.00
B_1    1.00 -1.00  1.00 -1.00
B_2    1.00 -1.00 -1.00  1.00

     the symmetry operations in each class and the name of the first element:

     E        1
                                                                 
     C2       2
                                                                 
     s_v      3
                                                                 
     s_v'     4
                                                                 

     Band symmetry, C_2v (mm2)  point group:

     e(  1 -  1) =    -13.72228  eV     1   --> A_1  D_1  S_1  
     e(  2 -  2) =    -12.18451  eV     1   --> A_1  D_1  S_1  
     e(  3 -  3) =     -5.72177  eV     1   --> B_1  D_3  S_3  
     e(  4 -  4) =     -1.80587  eV     1   --> B_2  D_4  S_4  
     e(  5 -  5) =      2.52725  eV     1   --> B_2  D_4  S_4  
     e(  6 -  6) =      8.36851  eV     1   --> A_1  D_1  S_1  
     e(  7 -  7) =     10.81083  eV     1   --> A_1  D_1  S_1  
     e(  8 -  8) =     12.63265  eV     1   --> A_1  D_1  S_1  

 **************************************************************************

 **************************************************************************

                    xk=(   0.00000,   0.50943,   0.00000  )

     Band symmetry, C_2v (mm2)  point group:

     e(  1 -  1) =    -14.26822  eV     1   --> A_1  D_1  S_1  
     e(  2 -  2) =    -11.54802  eV     1   --> A_1  D_1  S_1  
     e(  3 -  3) =     -5.66008  eV     1   --> B_1  D_3  S_3  
     e(  4 -  4) =     -2.15662  eV     1   --> B_2  D_4  S_4  
     e(  5 -  5) =      2.97492  eV     1   --> B_2  D_4  S_4  
     e(  6 -  6) =      8.39461  eV     1   --> A_1  D_1  S_1  
     e(  7 -  7) =      9.96866  eV     1   --> A_1  D_1  S_1  
     e(  8 -  8) =     12.78584  eV     1   --> B_2  D_4  S_4  

 **************************************************************************

 **************************************************************************

                    xk=(   0.00000,   0.47546,   0.00000  )

     Band symmetry, C_2v (mm2)  point group:

     e(  1 -  1) =    -14.81574  eV     1   --> A_1  D_1  S_1  
     e(  2 -  2) =    -10.85082  eV     1   --> A_1  D_1  S_1  
     e(  3 -  3) =     -5.55797  eV     1   --> B_1  D_3  S_3  
     e(  4 -  4) =     -2.62426  eV     1   --> B_2  D_4  S_4  
     e(  5 -  5) =      3.60168  eV     1   --> B_2  D_4  S_4  
     e(  6 -  6) =      8.43170  eV     1   --> A_1  D_1  S_1  
     e(  7 -  7) =      9.18233  eV     1   --> A_1  D_1  S_1  
     e(  8 -  8) =     12.12045  eV     1   --> B_2  D_4  S_4  

 **************************************************************************

 **************************************************************************

                    xk=(   0.00000,   0.44150,   0.00000  )

     Band symmetry, C_2v (mm2)  point group:

     e(  1 -  1) =    -15.33839  eV     1   --> A_1  D_1  S_1  
     e(  2 -  2) =    -10.12114  eV     1   --> A_1  D_1  S_1  
     e(  3 -  3) =     -5.41652  eV     1   --> B_1  D_3  S_3  
     e(  4 -  4) =     -3.13784  eV     1   --> B_2  D_4  S_4  
     e(  5 -  5) =      4.33303  eV     1   --> B_2  D_4  S_4  
     e(  6 -  6) =      8.33636  eV     1   --> A_1  D_1  S_1  
     e(  7 -  7) =      8.59625  eV     1   --> A_1  D_1  S_1  
     e(  8 -  8) =     11.46968  eV     1   --> B_2  D_4  S_4  

 **************************************************************************

 **************************************************************************

                    xk=(   0.00000,   0.40754,   0.00000  )

     Band symmetry, C_2v (mm2)  point group:

     e(  1 -  1) =    -15.82923  eV     1   --> A_1  D_1  S_1  
     e(  2 -  2) =     -9.36867  eV     1   --> A_1  D_1  S_1  
     e(  3 -  3) =     -5.23736  eV     1   --> B_1  D_3  S_3  
     e(  4 -  4) =     -3.65781  eV     1   --> B_2  D_4  S_4  
     e(  5 -  5) =      5.12418  eV     1   --> B_2  D_4  S_4  
     e(  6 -  6) =      7.70744  eV     1   --> A_1  D_1  S_1  
     e(  7 -  7) =      8.61084  eV     1   --> A_1  D_1  S_1  
     e(  8 -  8) =     10.84956  eV     1   --> B_2  D_4  S_4  

 **************************************************************************

 **************************************************************************

                    xk=(   0.00000,   0.37358,   0.00000  )

     Band symmetry, C_2v (mm2)  point group:

     e(  1 -  1) =    -16.28522  eV     1   --> A_1  D_1  S_1  
     e(  2 -  2) =     -8.60034  eV     1   --> A_1  D_1  S_1  
     e(  3 -  3) =     -5.02278  eV     1   --> B_1  D_3  S_3  
     e(  4 -  4) =     -4.16260  eV     1   --> B_2  D_4  S_4  
     e(  5 -  5) =      5.94656  eV     1   --> B_2  D_4  S_4  
     e(  6 -  6) =      7.07528  eV     1   --> A_1  D_1  S_1  
     e(  7 -  7) =      8.69362  eV     1   --> A_1  D_1  S_1  
     e(  8 -  8) =     10.26859  eV     1   --> B_2  D_4  S_4  

 **************************************************************************

 **************************************************************************

                    xk=(   0.00000,   0.33962,   0.00000  )

     Band symmetry, C_2v (mm2)  point group:

     e(  1 -  1) =    -16.70466  eV     1   --> A_1  D_1  S_1  
     e(  2 -  2) =     -7.82270  eV     1   --> A_1  D_1  S_1  
     e(  3 -  3) =     -4.77578  eV     1   --> B_1  D_3  S_3  
     e(  4 -  4) =     -4.64004  eV     1   --> B_2  D_4  S_4  
     e(  5 -  5) =      6.49281  eV     1   --> A_1  D_1  S_1  
     e(  6 -  6) =      6.77852  eV     1   --> B_2  D_4  S_4  
     e(  7 -  7) =      8.78827  eV     1   --> A_1  D_1  S_1  
     e(  8 -  8) =      9.73304  eV     1   --> B_2  D_4  S_4  

 **************************************************************************

 **************************************************************************

                    xk=(   0.00000,   0.30566,   0.00000  )

     Band symmetry, C_2v (mm2)  point group:

     e(  1 -  1) =    -17.08638  eV     1   --> A_1  D_1  S_1  
     e(  2 -  2) =     -7.04339  eV     1   --> A_1  D_1  S_1  
     e(  3 -  3) =     -5.08275  eV     1   --> B_2  D_4  S_4  
     e(  4 -  4) =     -4.50039  eV     1   --> B_1  D_3  S_3  
     e(  5 -  5) =      5.96389  eV     1   --> A_1  D_1  S_1  
     e(  6 -  6) =      7.59707  eV     1   --> B_2  D_4  S_4  
     e(  7 -  7) =      8.88617  eV     1   --> A_1  D_1  S_1  
     e(  8 -  8) =      9.25201  eV     1   --> B_2  D_4  S_4  

 **************************************************************************

 **************************************************************************

                    xk=(   0.00000,   0.27169,   0.00000  )

     Band symmetry, C_2v (mm2)  point group:

     e(  1 -  1) =    -17.42964  eV     1   --> A_1  D_1  S_1  
     e(  2 -  2) =     -6.27157  eV     1   --> A_1  D_1  S_1  
     e(  3 -  3) =     -5.48599  eV     1   --> B_2  D_4  S_4  
     e(  4 -  4) =     -4.20208  eV     1   --> B_1  D_3  S_3  
     e(  5 -  5) =      5.48961  eV     1   --> A_1  D_1  S_1  
     e(  6 -  6) =      8.32645  eV     1   --> B_2  D_4  S_4  
     e(  7 -  7) =      8.88761  eV     1   --> B_2  D_4  S_4  
     e(  8 -  8) =      8.97939  eV     1   --> A_1  D_1  S_1  

 **************************************************************************

 **************************************************************************

                    xk=(   0.00000,   0.23773,   0.00000  )

     Band symmetry, C_2v (mm2)  point group:

     e(  1 -  1) =    -17.73375  eV     1   --> A_1  D_1  S_1  
     e(  2 -  2) =     -5.84659  eV     1   --> B_2  D_4  S_4  
     e(  3 -  3) =     -5.51851  eV     1   --> A_1  D_1  S_1  
     e(  4 -  4) =     -3.88780  eV     1   --> B_1  D_3  S_3  
     e(  5 -  5) =      5.07053  eV     1   --> A_1  D_1  S_1  
     e(  6 -  6) =      8.32012  eV     1   --> B_2  D_4  S_4  
     e(  7 -  7) =      9.06000  eV     1   --> A_1  D_1  S_1  
     e(  8 -  8) =      9.27238  eV     1   --> B_2  D_4  S_4  

 **************************************************************************

 **************************************************************************

                    xk=(   0.00000,   0.20377,   0.00000  )

     Band symmetry, C_2v (mm2)  point group:

     e(  1 -  1) =    -17.99818  eV     1   --> A_1  D_1  S_1  
     e(  2 -  2) =     -6.16230  eV     1   --> B_2  D_4  S_4  
     e(  3 -  3) =     -4.79822  eV     1   --> A_1  D_1  S_1  
     e(  4 -  4) =     -3.56659  eV     1   --> B_1  D_3  S_3  
     e(  5 -  5) =      4.70698  eV     1   --> A_1  D_1  S_1  
     e(  6 -  6) =      8.00481  eV     1   --> B_2  D_4  S_4  
     e(  7 -  7) =      9.11973  eV     1   --> A_1  D_1  S_1  
     e(  8 -  8) =      9.96457  eV     1   --> B_2  D_4  S_4  

 **************************************************************************

 **************************************************************************

                    xk=(   0.00000,   0.16981,   0.00000  )

     Band symmetry, C_2v (mm2)  point group:

     e(  1 -  1) =    -18.22258  eV     1   --> A_1  D_1  S_1  
     e(  2 -  2) =     -6.43154  eV     1   --> B_2  D_4  S_4  
     e(  3 -  3) =     -4.12777  eV     1   --> A_1  D_1  S_1  
     e(  4 -  4) =     -3.25018  eV     1   --> B_1  D_3  S_3  
     e(  5 -  5) =      4.39918  eV     1   --> A_1  D_1  S_1  
     e(  6 -  6) =      7.71957  eV     1   --> B_2  D_4  S_4  
     e(  7 -  7) =      9.15265  eV     1   --> A_1  D_1  S_1  
     e(  8 -  8) =     10.07488  eV     1   --> A_1  D_1  S_1  

 **************************************************************************

 **************************************************************************

                    xk=(   0.00000,   0.13585,   0.00000  )

     Band symmetry, C_2v (mm2)  point group:

     e(  1 -  1) =    -18.40658  eV     1   --> A_1  D_1  S_1  
     e(  2 -  2) =     -6.65314  eV     1   --> B_2  D_4  S_4  
     e(  3 -  3) =     -3.52776  eV     1   --> A_1  D_1  S_1  
     e(  4 -  4) =     -2.95291  eV     1   --> B_1  D_3  S_3  
     e(  5 -  5) =      4.14726  eV     1   --> A_1  D_1  S_1  
     e(  6 -  6) =      7.48225  eV     1   --> B_2  D_4  S_4  
     e(  7 -  7) =      9.15846  eV     1   --> A_1  D_1  S_1  
     e(  8 -  8) =      9.83272  eV     1   --> A_1  D_1  S_1  

 **************************************************************************

 **************************************************************************

                    xk=(   0.00000,   0.10189,   0.00000  )

     Band symmetry, C_2v (mm2)  point group:

     e(  1 -  1) =    -18.54996  eV     1   --> A_1  D_1  S_1  
     e(  2 -  2) =     -6.82627  eV     1   --> B_2  D_4  S_4  
     e(  3 -  3) =     -3.02197  eV     1   --> A_1  D_1  S_1  
     e(  4 -  4) =     -2.69217  eV     1   --> B_1  D_3  S_3  
     e(  5 -  5) =      3.95132  eV     1   --> A_1  D_1  S_1  
     e(  6 -  6) =      7.29627  eV     1   --> B_2  D_4  S_4  
     e(  7 -  7) =      9.14465  eV     1   --> A_1  D_1  S_1  
     e(  8 -  8) =      9.63615  eV     1   --> A_1  D_1  S_1  

 **************************************************************************

 **************************************************************************

                    xk=(   0.00000,   0.06792,   0.00000  )

     Band symmetry, C_2v (mm2)  point group:

     e(  1 -  1) =    -18.65250  eV     1   --> A_1  D_1  S_1  
     e(  2 -  2) =     -6.95032  eV     1   --> B_2  D_4  S_4  
     e(  3 -  3) =     -2.63554  eV     1   --> A_1  D_1  S_1  
     e(  4 -  4) =     -2.48671  eV     1   --> B_1  D_3  S_3  
     e(  5 -  5) =      3.81139  eV     1   --> A_1  D_1  S_1  
     e(  6 -  6) =      7.16288  eV     1   --> B_2  D_4  S_4  
     e(  7 -  7) =      9.12561  eV     1   --> A_1  D_1  S_1  
     e(  8 -  8) =      9.46917  eV     1   --> B_1  D_3  S_3  

 **************************************************************************

 **************************************************************************

                    xk=(   0.00000,   0.03396,   0.00000  )

     Band symmetry, C_2v (mm2)  point group:

     e(  1 -  1) =    -18.71408  eV     1   --> A_1  D_1  S_1  
     e(  2 -  2) =     -7.02491  eV     1   --> B_2  D_4  S_4  
     e(  3 -  3) =     -2.39206  eV     1   --> A_1  D_1  S_1  
     e(  4 -  4) =     -2.35456  eV     1   --> B_1  D_3  S_3  
     e(  5 -  5) =      3.72746  eV     1   --> A_1  D_1  S_1  
     e(  6 -  6) =      7.08266  eV     1   --> B_2  D_4  S_4  
     e(  7 -  7) =      9.11390  eV     1   --> A_1  D_1  S_1  
     e(  8 -  8) =      9.20188  eV     1   --> B_1  D_3  S_3  

 **************************************************************************

 **************************************************************************

                    xk=(   0.00000,   0.00000,   0.00000  )

     point group D_6h(6/mmm)
     there are 12 classes
     the character table:

       E     2C6   2C3   C2    3C2'  3C2'' i     2S3   2S6   s_h   3s_d  3s_v 
A_1g   1.00  1.00  1.00  1.00  1.00  1.00  1.00  1.00  1.00  1.00  1.00  1.00
A_2g   1.00  1.00  1.00  1.00 -1.00 -1.00  1.00  1.00  1.00  1.00 -1.00 -1.00
B_1g   1.00 -1.00  1.00 -1.00  1.00 -1.00  1.00 -1.00  1.00 -1.00  1.00 -1.00
B_2g   1.00 -1.00  1.00 -1.00 -1.00  1.00  1.00 -1.00  1.00 -1.00 -1.00  1.00
E_1g   2.00  1.00 -1.00 -2.00  0.00  0.00  2.00  1.00 -1.00 -2.00  0.00  0.00
E_2g   2.00 -1.00 -1.00  2.00  0.00  0.00  2.00 -1.00 -1.00  2.00  0.00  0.00
A_1u   1.00  1.00  1.00  1.00  1.00  1.00 -1.00 -1.00 -1.00 -1.00 -1.00 -1.00
A_2u   1.00  1.00  1.00  1.00 -1.00 -1.00 -1.00 -1.00 -1.00 -1.00  1.00  1.00
B_1u   1.00 -1.00  1.00 -1.00  1.00 -1.00 -1.00  1.00 -1.00  1.00 -1.00  1.00
B_2u   1.00 -1.00  1.00 -1.00 -1.00  1.00 -1.00  1.00 -1.00  1.00  1.00 -1.00
E_1u   2.00  1.00 -1.00 -2.00  0.00  0.00 -2.00 -1.00  1.00  2.00  0.00  0.00
E_2u   2.00 -1.00 -1.00  2.00  0.00  0.00 -2.00  1.00  1.00 -2.00  0.00  0.00

     the symmetry operations in each class and the name of the first element:

     E        1
                                                                 
     2C6      5    6
                                                                 
     2C3      7    8
                                                                 
     C2       2
                                                                 
     3C2'     4   12   11
                                                                 
     3C2''    3    9   10
                                                                 
     i       13
                                                                 
     2S3     17   18
                                                                 
     2S6     19   20
                                                                 
     s_h     14
                                                                 
     3s_d    16   24   23
                                                                 
     3s_v    15   21   22
                                                                 

     Band symmetry, D_6h(6/mmm) point group:

     e(  1 -  1) =    -18.73461  eV     1   --> A_1g           
     e(  2 -  2) =     -7.04979  eV     1   --> A_2u           
     e(  3 -  4) =     -2.30874  eV     2   --> E_2g           
     e(  5 -  5) =      3.69948  eV     1   --> A_1g           
     e(  6 -  6) =      7.05589  eV     1   --> A_2u           
     e(  7 -  8) =      9.11146  eV     2   --> E_1u           

 **************************************************************************

     BANDS        :      4.57s CPU      4.64s WALL


   This run was terminated on:  12:45:58   4Jul2023            

=------------------------------------------------------------------------------=
   JOB DONE.
=------------------------------------------------------------------------------=
