
     Program BANDS v.7.2 starts on  1Jul2023 at 19:40: 4 

     This program is part of the open-source Quantum ESPRESSO suite
     for quantum simulation of materials; please cite
         "P. Giannozzi et al., J. Phys.:Condens. Matter 21 395502 (2009);
         "P. Giannozzi et al., J. Phys.:Condens. Matter 29 465901 (2017);
         "P. Giannozzi et al., J. Chem. Phys. 152 154105 (2020);
          URL http://www.quantum-espresso.org", 
     in publications or presentations arising from this work. More details at
     http://www.quantum-espresso.org/quote

     Parallel version (MPI), running on     1 processors

     MPI processes distributed on     1 nodes
     1502 MiB available memory on the printing compute node when the environment starts


     Reading xml data from directory:

     ./tmp/graphene/graphene.save/

     IMPORTANT: XC functional enforced from input :
     Exchange-correlation= PZ
                           (   1   1   0   0   0   0   0)
     Any further DFT definition will be discarded
     Please, verify this is what you really want


     G-vector sticks info
     --------------------
     sticks:   dense  smooth     PW     G-vecs:    dense   smooth      PW
     Sum         595     241     85                35435     8973    1713

     Using Slab Decomposition


     Check: negative core charge=   -0.000002

     negative rho (up, down):  1.154E-06 0.000E+00
     Reading collected, re-writing distributed wavefunctions
     high-symmetry point:  0.0000 0.0000 0.0000   x coordinate   0.0000
     high-symmetry point:  0.3333 0.5774 0.0000   x coordinate   0.6667
     high-symmetry point:  0.0000 0.5774 0.0000   x coordinate   1.0000
     high-symmetry point:  0.0000 0.0000 0.0000   x coordinate   1.5774

     Plottable bands (eV) written to file graphene-bands.dat.gnu
     Bands written to file graphene-bands.dat

 **************************************************************************

                    xk=(   0.00000,   0.00000,   0.00000  )

     point group D_6h(6/mmm)
     there are 12 classes
     the character table:

       E     2C6   2C3   C2    3C2'  3C2'' i     2S3   2S6   s_h   3s_d  3s_v 
A_1g   1.00  1.00  1.00  1.00  1.00  1.00  1.00  1.00  1.00  1.00  1.00  1.00
A_2g   1.00  1.00  1.00  1.00 -1.00 -1.00  1.00  1.00  1.00  1.00 -1.00 -1.00
B_1g   1.00 -1.00  1.00 -1.00  1.00 -1.00  1.00 -1.00  1.00 -1.00  1.00 -1.00
B_2g   1.00 -1.00  1.00 -1.00 -1.00  1.00  1.00 -1.00  1.00 -1.00 -1.00  1.00
E_1g   2.00  1.00 -1.00 -2.00  0.00  0.00  2.00  1.00 -1.00 -2.00  0.00  0.00
E_2g   2.00 -1.00 -1.00  2.00  0.00  0.00  2.00 -1.00 -1.00  2.00  0.00  0.00
A_1u   1.00  1.00  1.00  1.00  1.00  1.00 -1.00 -1.00 -1.00 -1.00 -1.00 -1.00
A_2u   1.00  1.00  1.00  1.00 -1.00 -1.00 -1.00 -1.00 -1.00 -1.00  1.00  1.00
B_1u   1.00 -1.00  1.00 -1.00  1.00 -1.00 -1.00  1.00 -1.00  1.00 -1.00  1.00
B_2u   1.00 -1.00  1.00 -1.00 -1.00  1.00 -1.00  1.00 -1.00  1.00  1.00 -1.00
E_1u   2.00  1.00 -1.00 -2.00  0.00  0.00 -2.00 -1.00  1.00  2.00  0.00  0.00
E_2u   2.00 -1.00 -1.00  2.00  0.00  0.00 -2.00  1.00  1.00 -2.00  0.00  0.00

     the symmetry operations in each class and the name of the first element:

     E        1
                                                                 
     2C6      5    6
                                                                 
     2C3      7    8
                                                                 
     C2       2
                                                                 
     3C2'     4   12   11
                                                                 
     3C2''    3    9   10
                                                                 
     i       13
                                                                 
     2S3     17   18
                                                                 
     2S6     19   20
                                                                 
     s_h     14
                                                                 
     3s_d    16   24   23
                                                                 
     3s_v    15   21   22
                                                                 

     Band symmetry, D_6h(6/mmm) point group:

     e(  1 -  1) =    -18.71410  eV     1   --> A_1g           
     e(  2 -  2) =     -7.04825  eV     1   --> A_2u           
     e(  3 -  4) =     -2.41797  eV     2   --> E_2g           
     e(  5 -  5) =      3.64761  eV     1   --> A_1g           
     e(  6 -  6) =      6.96104  eV     1   --> A_2u           
     e(  7 -  8) =      8.90473  eV     2   --> E_1u           

 **************************************************************************

 **************************************************************************

                    xk=(   0.01667,   0.02887,   0.00000  )

     point group C_2v (mm2) 
     there are  4 classes
     the character table:

       E     C2    s_v   s_v' 
A_1    1.00  1.00  1.00  1.00
A_2    1.00  1.00 -1.00 -1.00
B_1    1.00 -1.00  1.00 -1.00
B_2    1.00 -1.00 -1.00  1.00

     the symmetry operations in each class and the name of the first element:

     E        1
                                                                 
     C2       2
                                                                 
     s_v      3
                                                                 
     s_v'     4
                                                                 

     Band symmetry, C_2v (mm2)  point group:

     e(  1 -  1) =    -18.69449  eV     1   --> A_1  D_1  S_1  
     e(  2 -  2) =     -7.02458  eV     1   --> B_2  D_4  S_4  
     e(  3 -  3) =     -2.49742  eV     1   --> B_1  D_3  S_3  
     e(  4 -  4) =     -2.46156  eV     1   --> A_1  D_1  S_1  
     e(  5 -  5) =      3.67429  eV     1   --> A_1  D_1  S_1  
     e(  6 -  6) =      6.98654  eV     1   --> B_2  D_4  S_4  
     e(  7 -  7) =      8.91100  eV     1   --> A_1  D_1  S_1  
     e(  8 -  8) =      8.99019  eV     1   --> B_1  D_3  S_3  

 **************************************************************************

 **************************************************************************

                    xk=(   0.03333,   0.05774,   0.00000  )

     Band symmetry, C_2v (mm2)  point group:

     e(  1 -  1) =    -18.63570  eV     1   --> A_1  D_1  S_1  
     e(  2 -  2) =     -6.95362  eV     1   --> B_2  D_4  S_4  
     e(  3 -  3) =     -2.72720  eV     1   --> B_1  D_3  S_3  
     e(  4 -  4) =     -2.59088  eV     1   --> A_1  D_1  S_1  
     e(  5 -  5) =      3.75434  eV     1   --> A_1  D_1  S_1  
     e(  6 -  6) =      7.06298  eV     1   --> B_2  D_4  S_4  
     e(  7 -  7) =      8.93490  eV     1   --> A_1  D_1  S_1  
     e(  8 -  8) =      9.23391  eV     1   --> B_1  D_3  S_3  

 **************************************************************************

 **************************************************************************

                    xk=(   0.05000,   0.08660,   0.00000  )

     Band symmetry, C_2v (mm2)  point group:

     e(  1 -  1) =    -18.53780  eV     1   --> A_1  D_1  S_1  
     e(  2 -  2) =     -6.83558  eV     1   --> B_2  D_4  S_4  
     e(  3 -  3) =     -3.08434  eV     1   --> B_1  D_3  S_3  
     e(  4 -  4) =     -2.80147  eV     1   --> A_1  D_1  S_1  
     e(  5 -  5) =      3.88780  eV     1   --> A_1  D_1  S_1  
     e(  6 -  6) =      7.19010  eV     1   --> B_2  D_4  S_4  
     e(  7 -  7) =      8.98730  eV     1   --> A_1  D_1  S_1  
     e(  8 -  8) =      9.50184  eV     1   -->   ?

 **************************************************************************

 **************************************************************************

                    xk=(   0.06667,   0.11547,   0.00000  )

     Band symmetry, C_2v (mm2)  point group:

     e(  1 -  1) =    -18.40090  eV     1   --> A_1  D_1  S_1  
     e(  2 -  2) =     -6.67083  eV     1   --> B_2  D_4  S_4  
     e(  3 -  3) =     -3.53970  eV     1   --> B_1  D_3  S_3  
     e(  4 -  4) =     -3.08631  eV     1   --> A_1  D_1  S_1  
     e(  5 -  5) =      4.07471  eV     1   --> A_1  D_1  S_1  
     e(  6 -  6) =      7.36749  eV     1   --> B_2  D_4  S_4  
     e(  7 -  7) =      9.07629  eV     1   --> A_1  D_1  S_1  
     e(  8 -  8) =      9.69350  eV     1   --> A_1  D_1  S_1  

 **************************************************************************

 **************************************************************************

                    xk=(   0.08333,   0.14434,   0.00000  )

     Band symmetry, C_2v (mm2)  point group:

     e(  1 -  1) =    -18.22521  eV     1   --> A_1  D_1  S_1  
     e(  2 -  2) =     -6.45989  eV     1   --> B_2  D_4  S_4  
     e(  3 -  3) =     -4.06481  eV     1   --> B_1  D_3  S_3  
     e(  4 -  4) =     -3.43658  eV     1   --> A_1  D_1  S_1  
     e(  5 -  5) =      4.31506  eV     1   --> A_1  D_1  S_1  
     e(  6 -  6) =      7.59448  eV     1   --> B_2  D_4  S_4  
     e(  7 -  7) =      9.20663  eV     1   --> A_1  D_1  S_1  
     e(  8 -  8) =      9.93499  eV     1   --> A_1  D_1  S_1  

 **************************************************************************

 **************************************************************************

                    xk=(   0.10000,   0.17321,   0.00000  )

     Band symmetry, C_2v (mm2)  point group:

     e(  1 -  1) =    -18.01096  eV     1   --> A_1  D_1  S_1  
     e(  2 -  2) =     -6.20349  eV     1   --> B_2  D_4  S_4  
     e(  3 -  3) =     -4.63504  eV     1   --> B_1  D_3  S_3  
     e(  4 -  4) =     -3.84184  eV     1   --> A_1  D_1  S_1  
     e(  5 -  5) =      4.60882  eV     1   --> A_1  D_1  S_1  
     e(  6 -  6) =      7.87009  eV     1   --> B_2  D_4  S_4  
     e(  7 -  7) =      9.38176  eV     1   --> A_1  D_1  S_1  
     e(  8 -  8) =      9.81024  eV     1   --> A_2  D_2  S_2  

 **************************************************************************

 **************************************************************************

                    xk=(   0.11667,   0.20207,   0.00000  )

     Band symmetry, C_2v (mm2)  point group:

     e(  1 -  1) =    -17.75851  eV     1   --> A_1  D_1  S_1  
     e(  2 -  2) =     -5.90255  eV     1   --> B_2  D_4  S_4  
     e(  3 -  3) =     -5.23124  eV     1   --> B_1  D_3  S_3  
     e(  4 -  4) =     -4.29144  eV     1   --> A_1  D_1  S_1  
     e(  5 -  5) =      4.95589  eV     1   --> A_1  D_1  S_1  
     e(  6 -  6) =      8.19282  eV     1   --> B_2  D_4  S_4  
     e(  7 -  7) =      9.14768  eV     1   --> A_2  D_2  S_2  
     e(  8 -  8) =      9.60265  eV     1   --> A_1  D_1  S_1  

 **************************************************************************

 **************************************************************************

                    xk=(   0.13333,   0.23094,   0.00000  )

     Band symmetry, C_2v (mm2)  point group:

     e(  1 -  1) =    -17.46817  eV     1   --> A_1  D_1  S_1  
     e(  2 -  2) =     -5.83860  eV     1   --> B_1  D_3  S_3  
     e(  3 -  3) =     -5.55828  eV     1   --> B_2  D_4  S_4  
     e(  4 -  4) =     -4.77465  eV     1   --> A_1  D_1  S_1  
     e(  5 -  5) =      5.35614  eV     1   --> A_1  D_1  S_1  
     e(  6 -  6) =      8.44515  eV     1   --> A_2  D_2  S_2  
     e(  7 -  7) =      8.56050  eV     1   --> B_2  D_4  S_4  
     e(  8 -  8) =      9.86921  eV     1   --> A_1  D_1  S_1  

 **************************************************************************

 **************************************************************************

                    xk=(   0.15000,   0.25981,   0.00000  )

     Band symmetry, C_2v (mm2)  point group:

     e(  1 -  1) =    -17.14051  eV     1   --> A_1  D_1  S_1  
     e(  2 -  2) =     -6.44627  eV     1   --> B_1  D_3  S_3  
     e(  3 -  3) =     -5.28140  eV     1   --> A_1  D_1  S_1  
     e(  4 -  4) =     -5.17225  eV     1   --> B_2  D_4  S_4  
     e(  5 -  5) =      5.80932  eV     1   --> A_1  D_1  S_1  
     e(  6 -  6) =      7.71773  eV     1   --> A_2  D_2  S_2  
     e(  7 -  7) =      8.96969  eV     1   --> B_2  D_4  S_4  
     e(  8 -  8) =     10.17999  eV     1   --> A_1  D_1  S_1  

 **************************************************************************

 **************************************************************************

                    xk=(   0.16667,   0.28868,   0.00000  )

     Band symmetry, C_2v (mm2)  point group:

     e(  1 -  1) =    -16.77619  eV     1   --> A_1  D_1  S_1  
     e(  2 -  2) =     -7.04598  eV     1   --> B_1  D_3  S_3  
     e(  3 -  3) =     -5.80228  eV     1   --> A_1  D_1  S_1  
     e(  4 -  4) =     -4.74642  eV     1   --> B_2  D_4  S_4  
     e(  5 -  5) =      6.31510  eV     1   --> A_1  D_1  S_1  
     e(  6 -  6) =      6.97850  eV     1   --> A_2  D_2  S_2  
     e(  7 -  7) =      9.41494  eV     1   --> B_2  D_4  S_4  
     e(  8 -  8) =     10.53235  eV     1   --> A_1  D_1  S_1  

 **************************************************************************

 **************************************************************************

                    xk=(   0.18333,   0.31754,   0.00000  )

     Band symmetry, C_2v (mm2)  point group:

     e(  1 -  1) =    -16.37602  eV     1   --> A_1  D_1  S_1  
     e(  2 -  2) =     -7.63164  eV     1   --> B_1  D_3  S_3  
     e(  3 -  3) =     -6.32895  eV     1   --> A_1  D_1  S_1  
     e(  4 -  4) =     -4.28327  eV     1   --> B_2  D_4  S_4  
     e(  5 -  5) =      6.23858  eV     1   --> A_2  D_2  S_2  
     e(  6 -  6) =      6.87300  eV     1   --> A_1  D_1  S_1  
     e(  7 -  7) =      9.88701  eV     1   --> B_2  D_4  S_4  
     e(  8 -  8) =     10.92291  eV     1   --> A_1  D_1  S_1  

 **************************************************************************

 **************************************************************************

                    xk=(   0.20000,   0.34641,   0.00000  )

     Band symmetry, C_2v (mm2)  point group:

     e(  1 -  1) =    -15.94108  eV     1   --> A_1  D_1  S_1  
     e(  2 -  2) =     -8.19870  eV     1   --> B_1  D_3  S_3  
     e(  3 -  3) =     -6.85385  eV     1   --> A_1  D_1  S_1  
     e(  4 -  4) =     -3.78600  eV     1   --> B_2  D_4  S_4  
     e(  5 -  5) =      5.50698  eV     1   --> A_2  D_2  S_2  
     e(  6 -  6) =      7.48234  eV     1   --> A_1  D_1  S_1  
     e(  7 -  7) =     10.36946  eV     1   --> B_2  D_4  S_4  
     e(  8 -  8) =     11.34638  eV     1   --> A_1  D_1  S_1  

 **************************************************************************

 **************************************************************************

                    xk=(   0.21667,   0.37528,   0.00000  )

     Band symmetry, C_2v (mm2)  point group:

     e(  1 -  1) =    -15.47280  eV     1   --> A_1  D_1  S_1  
     e(  2 -  2) =     -8.74370  eV     1   --> B_1  D_3  S_3  
     e(  3 -  3) =     -7.37028  eV     1   --> A_1  D_1  S_1  
     e(  4 -  4) =     -3.25866  eV     1   --> B_2  D_4  S_4  
     e(  5 -  5) =      4.79121  eV     1   --> A_2  D_2  S_2  
     e(  6 -  6) =      8.14210  eV     1   --> A_1  D_1  S_1  
     e(  7 -  7) =     10.83187  eV     1   --> B_2  D_4  S_4  
     e(  8 -  8) =     11.79583  eV     1   --> A_1  D_1  S_1  

 **************************************************************************

 **************************************************************************

                    xk=(   0.23333,   0.40415,   0.00000  )

     Band symmetry, C_2v (mm2)  point group:

     e(  1 -  1) =    -14.97317  eV     1   --> A_1  D_1  S_1  
     e(  2 -  2) =     -9.26407  eV     1   --> B_1  D_3  S_3  
     e(  3 -  3) =     -7.87213  eV     1   --> A_1  D_1  S_1  
     e(  4 -  4) =     -2.70641  eV     1   --> B_2  D_4  S_4  
     e(  5 -  5) =      4.09727  eV     1   --> A_2  D_2  S_2  
     e(  6 -  6) =      8.85067  eV     1   --> A_1  D_1  S_1  
     e(  7 -  7) =     11.21924  eV     1   --> B_2  D_4  S_4  
     e(  8 -  8) =     12.26049  eV     1   --> A_1  D_1  S_1  

 **************************************************************************

 **************************************************************************

                    xk=(   0.25000,   0.43301,   0.00000  )

     Band symmetry, C_2v (mm2)  point group:

     e(  1 -  1) =    -14.44506  eV     1   --> A_1  D_1  S_1  
     e(  2 -  2) =     -9.75779  eV     1   --> B_1  D_3  S_3  
     e(  3 -  3) =     -8.35328  eV     1   --> A_1  D_1  S_1  
     e(  4 -  4) =     -2.13599  eV     1   --> B_2  D_4  S_4  
     e(  5 -  5) =      3.43029  eV     1   --> A_2  D_2  S_2  
     e(  6 -  6) =      9.60536  eV     1   --> A_1  D_1  S_1  
     e(  7 -  7) =     11.45344  eV     1   --> B_2  D_4  S_4  
     e(  8 -  8) =     12.72395  eV     1   --> A_1  D_1  S_1  

 **************************************************************************

 **************************************************************************

                    xk=(   0.26667,   0.46188,   0.00000  )

     Band symmetry, C_2v (mm2)  point group:

     e(  1 -  1) =    -13.89285  eV     1   --> A_1  D_1  S_1  
     e(  2 -  2) =    -10.22333  eV     1   --> B_1  D_3  S_3  
     e(  3 -  3) =     -8.80725  eV     1   --> A_1  D_1  S_1  
     e(  4 -  4) =     -1.55580  eV     1   --> B_2  D_4  S_4  
     e(  5 -  5) =      2.79425  eV     1   --> A_2  D_2  S_2  
     e(  6 -  6) =     10.40135  eV     1   --> A_1  D_1  S_1  
     e(  7 -  7) =     11.48901  eV     1   --> B_2  D_4  S_4  
     e(  8 -  8) =     13.16003  eV     1   --> A_1  D_1  S_1  

 **************************************************************************

 **************************************************************************

                    xk=(   0.28333,   0.49075,   0.00000  )

     Band symmetry, C_2v (mm2)  point group:

     e(  1 -  1) =    -13.32399  eV     1   --> A_1  D_1  S_1  
     e(  2 -  2) =    -10.65953  eV     1   --> B_1  D_3  S_3  
     e(  3 -  3) =     -9.22540  eV     1   --> A_1  D_1  S_1  
     e(  4 -  4) =     -0.97643  eV     1   --> B_2  D_4  S_4  
     e(  5 -  5) =      2.19246  eV     1   --> A_2  D_2  S_2  
     e(  6 -  6) =     11.22904  eV     1   --> A_1  D_1  S_1  
     e(  7 -  7) =     11.37826  eV     1   --> B_2  D_4  S_4  
     e(  8 -  8) =     13.52728  eV     1   -->   ?

 **************************************************************************

 **************************************************************************

                    xk=(   0.30000,   0.51962,   0.00000  )

     Band symmetry, C_2v (mm2)  point group:

     e(  1 -  1) =    -12.75304  eV     1   --> A_1  D_1  S_1  
     e(  2 -  2) =    -11.06552  eV     1   --> B_1  D_3  S_3  
     e(  3 -  3) =     -9.59308  eV     1   --> A_1  D_1  S_1  
     e(  4 -  4) =     -0.41088  eV     1   --> B_2  D_4  S_4  
     e(  5 -  5) =      1.62758  eV     1   --> A_2  D_2  S_2  
     e(  6 -  6) =     11.22044  eV     1   --> B_2  D_4  S_4  
     e(  7 -  7) =     12.06632  eV     1   --> A_1  D_1  S_1  
     e(  8 -  8) =     13.58489  eV     1   --> B_1  D_3  S_3  

 **************************************************************************

 **************************************************************************

                    xk=(   0.31667,   0.54848,   0.00000  )

     Band symmetry, C_2v (mm2)  point group:

     e(  1 -  1) =    -12.21289  eV     1   --> A_1  D_1  S_1  
     e(  2 -  2) =    -11.44058  eV     1   --> B_1  D_3  S_3  
     e(  3 -  3) =     -9.87837  eV     1   --> A_1  D_1  S_1  
     e(  4 -  4) =      0.12578  eV     1   --> B_2  D_4  S_4  
     e(  5 -  5) =      1.10191  eV     1   --> A_2  D_2  S_2  
     e(  6 -  6) =     11.09307  eV     1   --> B_2  D_4  S_4  
     e(  7 -  7) =     12.85165  eV     1   --> A_1  D_1  S_1  
     e(  8 -  8) =     13.52299  eV     1   --> B_1  D_3  S_3  

 **************************************************************************

 **************************************************************************

                    xk=(   0.33333,   0.57735,   0.00000  )

     zone border point and non-symmorphic group 
     symmetry decomposition not available

 **************************************************************************

 **************************************************************************

                    xk=(   0.30000,   0.57735,   0.00000  )

     zone border point and non-symmorphic group 
     symmetry decomposition not available

 **************************************************************************

 **************************************************************************

                    xk=(   0.26667,   0.57735,   0.00000  )

     zone border point and non-symmorphic group 
     symmetry decomposition not available

 **************************************************************************

 **************************************************************************

                    xk=(   0.23333,   0.57735,   0.00000  )

     zone border point and non-symmorphic group 
     symmetry decomposition not available

 **************************************************************************

 **************************************************************************

                    xk=(   0.20000,   0.57735,   0.00000  )

     zone border point and non-symmorphic group 
     symmetry decomposition not available

 **************************************************************************

 **************************************************************************

                    xk=(   0.16667,   0.57735,   0.00000  )

     zone border point and non-symmorphic group 
     symmetry decomposition not available

 **************************************************************************

 **************************************************************************

                    xk=(   0.13333,   0.57735,   0.00000  )

     zone border point and non-symmorphic group 
     symmetry decomposition not available

 **************************************************************************

 **************************************************************************

                    xk=(   0.10000,   0.57735,   0.00000  )

     zone border point and non-symmorphic group 
     symmetry decomposition not available

 **************************************************************************

 **************************************************************************

                    xk=(   0.06667,   0.57735,   0.00000  )

     zone border point and non-symmorphic group 
     symmetry decomposition not available

 **************************************************************************

 **************************************************************************

                    xk=(   0.03333,   0.57735,   0.00000  )

     zone border point and non-symmorphic group 
     symmetry decomposition not available

 **************************************************************************

 **************************************************************************

                    xk=(   0.00000,   0.57735,   0.00000  )

     zone border point and non-symmorphic group 
     symmetry decomposition not available

 **************************************************************************

 **************************************************************************

                    xk=(   0.00000,   0.54339,   0.00000  )

     point group C_2v (mm2) 
     there are  4 classes
     the character table:

       E     C2    s_v   s_v' 
A_1    1.00  1.00  1.00  1.00
A_2    1.00  1.00 -1.00 -1.00
B_1    1.00 -1.00  1.00 -1.00
B_2    1.00 -1.00 -1.00  1.00

     the symmetry operations in each class and the name of the first element:

     E        1
                                                                 
     C2       2
                                                                 
     s_v      3
                                                                 
     s_v'     4
                                                                 

     Band symmetry, C_2v (mm2)  point group:

     e(  1 -  1) =    -13.75779  eV     1   --> A_1  D_1  S_1  
     e(  2 -  2) =    -12.20319  eV     1   --> A_1  D_1  S_1  
     e(  3 -  3) =     -5.78221  eV     1   --> B_1  D_3  S_3  
     e(  4 -  4) =     -1.87648  eV     1   --> B_2  D_4  S_4  
     e(  5 -  5) =      2.41421  eV     1   --> B_2  D_4  S_4  
     e(  6 -  6) =      8.11044  eV     1   --> A_1  D_1  S_1  
     e(  7 -  7) =     10.68470  eV     1   --> A_1  D_1  S_1  
     e(  8 -  8) =     12.48611  eV     1   --> A_1  D_1  S_1  

 **************************************************************************

 **************************************************************************

                    xk=(   0.00000,   0.50943,   0.00000  )

     Band symmetry, C_2v (mm2)  point group:

     e(  1 -  1) =    -14.29268  eV     1   --> A_1  D_1  S_1  
     e(  2 -  2) =    -11.57852  eV     1   --> A_1  D_1  S_1  
     e(  3 -  3) =     -5.72132  eV     1   --> B_1  D_3  S_3  
     e(  4 -  4) =     -2.22131  eV     1   --> B_2  D_4  S_4  
     e(  5 -  5) =      2.85400  eV     1   --> B_2  D_4  S_4  
     e(  6 -  6) =      8.13815  eV     1   --> A_1  D_1  S_1  
     e(  7 -  7) =      9.85093  eV     1   --> A_1  D_1  S_1  
     e(  8 -  8) =     12.62015  eV     1   --> B_2  D_4  S_4  

 **************************************************************************

 **************************************************************************

                    xk=(   0.00000,   0.47546,   0.00000  )

     Band symmetry, C_2v (mm2)  point group:

     e(  1 -  1) =    -14.83294  eV     1   --> A_1  D_1  S_1  
     e(  2 -  2) =    -10.88982  eV     1   --> A_1  D_1  S_1  
     e(  3 -  3) =     -5.62054  eV     1   --> B_1  D_3  S_3  
     e(  4 -  4) =     -2.68170  eV     1   --> B_2  D_4  S_4  
     e(  5 -  5) =      3.47022  eV     1   --> B_2  D_4  S_4  
     e(  6 -  6) =      8.17955  eV     1   --> A_1  D_1  S_1  
     e(  7 -  7) =      9.06985  eV     1   --> A_1  D_1  S_1  
     e(  8 -  8) =     11.96424  eV     1   --> B_2  D_4  S_4  

 **************************************************************************

 **************************************************************************

                    xk=(   0.00000,   0.44150,   0.00000  )

     Band symmetry, C_2v (mm2)  point group:

     e(  1 -  1) =    -15.34975  eV     1   --> A_1  D_1  S_1  
     e(  2 -  2) =    -10.16766  eV     1   --> A_1  D_1  S_1  
     e(  3 -  3) =     -5.48091  eV     1   --> B_1  D_3  S_3  
     e(  4 -  4) =     -3.18772  eV     1   --> B_2  D_4  S_4  
     e(  5 -  5) =      4.18963  eV     1   --> B_2  D_4  S_4  
     e(  6 -  6) =      8.17016  eV     1   --> A_1  D_1  S_1  
     e(  7 -  7) =      8.40741  eV     1   --> A_1  D_1  S_1  
     e(  8 -  8) =     11.32195  eV     1   --> B_2  D_4  S_4  

 **************************************************************************

 **************************************************************************

                    xk=(   0.00000,   0.40754,   0.00000  )

     Band symmetry, C_2v (mm2)  point group:

     e(  1 -  1) =    -15.83558  eV     1   --> A_1  D_1  S_1  
     e(  2 -  2) =     -9.42239  eV     1   --> A_1  D_1  S_1  
     e(  3 -  3) =     -5.30414  eV     1   --> B_1  D_3  S_3  
     e(  4 -  4) =     -3.70033  eV     1   --> B_2  D_4  S_4  
     e(  5 -  5) =      4.96783  eV     1   --> B_2  D_4  S_4  
     e(  6 -  6) =      7.61253  eV     1   --> A_1  D_1  S_1  
     e(  7 -  7) =      8.36024  eV     1   --> A_1  D_1  S_1  
     e(  8 -  8) =     10.70945  eV     1   --> B_2  D_4  S_4  

 **************************************************************************

 **************************************************************************

                    xk=(   0.00000,   0.37358,   0.00000  )

     Band symmetry, C_2v (mm2)  point group:

     e(  1 -  1) =    -16.28709  eV     1   --> A_1  D_1  S_1  
     e(  2 -  2) =     -8.66089  eV     1   --> A_1  D_1  S_1  
     e(  3 -  3) =     -5.09237  eV     1   --> B_1  D_3  S_3  
     e(  4 -  4) =     -4.19822  eV     1   --> B_2  D_4  S_4  
     e(  5 -  5) =      5.77679  eV     1   --> B_2  D_4  S_4  
     e(  6 -  6) =      6.98867  eV     1   --> A_1  D_1  S_1  
     e(  7 -  7) =      8.44455  eV     1   --> A_1  D_1  S_1  
     e(  8 -  8) =     10.13525  eV     1   --> B_2  D_4  S_4  

 **************************************************************************

 **************************************************************************

                    xk=(   0.00000,   0.33962,   0.00000  )

     Band symmetry, C_2v (mm2)  point group:

     e(  1 -  1) =    -16.70256  eV     1   --> A_1  D_1  S_1  
     e(  2 -  2) =     -7.89006  eV     1   --> A_1  D_1  S_1  
     e(  3 -  3) =     -4.84870  eV     1   --> B_1  D_3  S_3  
     e(  4 -  4) =     -4.66928  eV     1   --> B_2  D_4  S_4  
     e(  5 -  5) =      6.41247  eV     1   --> A_1  D_1  S_1  
     e(  6 -  6) =      6.59512  eV     1   --> B_2  D_4  S_4  
     e(  7 -  7) =      8.54294  eV     1   --> A_1  D_1  S_1  
     e(  8 -  8) =      9.60545  eV     1   --> B_2  D_4  S_4  

 **************************************************************************

 **************************************************************************

                    xk=(   0.00000,   0.30566,   0.00000  )

     Band symmetry, C_2v (mm2)  point group:

     e(  1 -  1) =    -17.08078  eV     1   --> A_1  D_1  S_1  
     e(  2 -  2) =     -7.11738  eV     1   --> A_1  D_1  S_1  
     e(  3 -  3) =     -5.10617  eV     1   --> B_2  D_4  S_4  
     e(  4 -  4) =     -4.57710  eV     1   --> B_1  D_3  S_3  
     e(  5 -  5) =      5.88902  eV     1   --> A_1  D_1  S_1  
     e(  6 -  6) =      7.40137  eV     1   --> B_2  D_4  S_4  
     e(  7 -  7) =      8.64557  eV     1   --> A_1  D_1  S_1  
     e(  8 -  8) =      9.12799  eV     1   --> B_2  D_4  S_4  

 **************************************************************************

 **************************************************************************

                    xk=(   0.00000,   0.27169,   0.00000  )

     Band symmetry, C_2v (mm2)  point group:

     e(  1 -  1) =    -17.42090  eV     1   --> A_1  D_1  S_1  
     e(  2 -  2) =     -6.35197  eV     1   --> A_1  D_1  S_1  
     e(  3 -  3) =     -5.50419  eV     1   --> B_2  D_4  S_4  
     e(  4 -  4) =     -4.28292  eV     1   --> B_1  D_3  S_3  
     e(  5 -  5) =      5.41961  eV     1   --> A_1  D_1  S_1  
     e(  6 -  6) =      8.13707  eV     1   --> B_2  D_4  S_4  
     e(  7 -  7) =      8.74485  eV     1   --> A_1  D_1  S_1  
     e(  8 -  8) =      8.74785  eV     1   --> B_2  D_4  S_4  

 **************************************************************************

 **************************************************************************

                    xk=(   0.00000,   0.23773,   0.00000  )

     Band symmetry, C_2v (mm2)  point group:

     e(  1 -  1) =    -17.72224  eV     1   --> A_1  D_1  S_1  
     e(  2 -  2) =     -5.86018  eV     1   --> B_2  D_4  S_4  
     e(  3 -  3) =     -5.60496  eV     1   --> A_1  D_1  S_1  
     e(  4 -  4) =     -3.97301  eV     1   --> B_1  D_3  S_3  
     e(  5 -  5) =      5.00481  eV     1   --> A_1  D_1  S_1  
     e(  6 -  6) =      8.20732  eV     1   --> B_2  D_4  S_4  
     e(  7 -  7) =      8.83261  eV     1   --> A_1  D_1  S_1  
     e(  8 -  8) =      9.04619  eV     1   --> B_2  D_4  S_4  

 **************************************************************************

 **************************************************************************

                    xk=(   0.00000,   0.20377,   0.00000  )

     Band symmetry, C_2v (mm2)  point group:

     e(  1 -  1) =    -17.98431  eV     1   --> A_1  D_1  S_1  
     e(  2 -  2) =     -6.17189  eV     1   --> B_2  D_4  S_4  
     e(  3 -  3) =     -4.89031  eV     1   --> A_1  D_1  S_1  
     e(  4 -  4) =     -3.65645  eV     1   --> B_1  D_3  S_3  
     e(  5 -  5) =      4.64496  eV     1   --> A_1  D_1  S_1  
     e(  6 -  6) =      7.89908  eV     1   --> B_2  D_4  S_4  
     e(  7 -  7) =      8.90033  eV     1   --> A_1  D_1  S_1  
     e(  8 -  8) =      9.72144  eV     1   --> B_2  D_4  S_4  

 **************************************************************************

 **************************************************************************

                    xk=(   0.00000,   0.16981,   0.00000  )

     Band symmetry, C_2v (mm2)  point group:

     e(  1 -  1) =    -18.20665  eV     1   --> A_1  D_1  S_1  
     e(  2 -  2) =     -6.43772  eV     1   --> B_2  D_4  S_4  
     e(  3 -  3) =     -4.22488  eV     1   --> A_1  D_1  S_1  
     e(  4 -  4) =     -3.34461  eV     1   --> B_1  D_3  S_3  
     e(  5 -  5) =      4.34027  eV     1   --> A_1  D_1  S_1  
     e(  6 -  6) =      7.61731  eV     1   --> B_2  D_4  S_4  
     e(  7 -  7) =      8.94150  eV     1   --> A_1  D_1  S_1  
     e(  8 -  8) =      9.94085  eV     1   --> A_1  D_1  S_1  

 **************************************************************************

 **************************************************************************

                    xk=(   0.00000,   0.13585,   0.00000  )

     Band symmetry, C_2v (mm2)  point group:

     e(  1 -  1) =    -18.38899  eV     1   --> A_1  D_1  S_1  
     e(  2 -  2) =     -6.65654  eV     1   --> B_2  D_4  S_4  
     e(  3 -  3) =     -3.62913  eV     1   --> A_1  D_1  S_1  
     e(  4 -  4) =     -3.05190  eV     1   --> B_1  D_3  S_3  
     e(  5 -  5) =      4.09090  eV     1   --> A_1  D_1  S_1  
     e(  6 -  6) =      7.38268  eV     1   --> B_2  D_4  S_4  
     e(  7 -  7) =      8.95437  eV     1   --> A_1  D_1  S_1  
     e(  8 -  8) =      9.69962  eV     1   --> A_1  D_1  S_1  

 **************************************************************************

 **************************************************************************

                    xk=(   0.00000,   0.10189,   0.00000  )

     Band symmetry, C_2v (mm2)  point group:

     e(  1 -  1) =    -18.53109  eV     1   --> A_1  D_1  S_1  
     e(  2 -  2) =     -6.82751  eV     1   --> B_2  D_4  S_4  
     e(  3 -  3) =     -3.12669  eV     1   --> A_1  D_1  S_1  
     e(  4 -  4) =     -2.79524  eV     1   --> B_1  D_3  S_3  
     e(  5 -  5) =      3.89693  eV     1   --> A_1  D_1  S_1  
     e(  6 -  6) =      7.19877  eV     1   --> B_2  D_4  S_4  
     e(  7 -  7) =      8.94507  eV     1   --> A_1  D_1  S_1  
     e(  8 -  8) =      9.50501  eV     1   -->   ?

 **************************************************************************

 **************************************************************************

                    xk=(   0.00000,   0.06792,   0.00000  )

     Band symmetry, C_2v (mm2)  point group:

     e(  1 -  1) =    -18.63272  eV     1   --> A_1  D_1  S_1  
     e(  2 -  2) =     -6.95002  eV     1   --> B_2  D_4  S_4  
     e(  3 -  3) =     -2.74271  eV     1   --> A_1  D_1  S_1  
     e(  4 -  4) =     -2.59300  eV     1   --> B_1  D_3  S_3  
     e(  5 -  5) =      3.75840  eV     1   --> A_1  D_1  S_1  
     e(  6 -  6) =      7.06685  eV     1   --> B_2  D_4  S_4  
     e(  7 -  7) =      8.92623  eV     1   --> A_1  D_1  S_1  
     e(  8 -  8) =      9.25698  eV     1   --> B_1  D_3  S_3  

 **************************************************************************

 **************************************************************************

                    xk=(   0.00000,   0.03396,   0.00000  )

     Band symmetry, C_2v (mm2)  point group:

     e(  1 -  1) =    -18.69375  eV     1   --> A_1  D_1  S_1  
     e(  2 -  2) =     -7.02367  eV     1   --> B_2  D_4  S_4  
     e(  3 -  3) =     -2.50071  eV     1   --> A_1  D_1  S_1  
     e(  4 -  4) =     -2.46295  eV     1   --> B_1  D_3  S_3  
     e(  5 -  5) =      3.67530  eV     1   --> A_1  D_1  S_1  
     e(  6 -  6) =      6.98751  eV     1   --> B_2  D_4  S_4  
     e(  7 -  7) =      8.91048  eV     1   --> A_1  D_1  S_1  
     e(  8 -  8) =      8.99401  eV     1   --> B_1  D_3  S_3  

 **************************************************************************

 **************************************************************************

                    xk=(   0.00000,   0.00000,   0.00000  )

     point group D_6h(6/mmm)
     there are 12 classes
     the character table:

       E     2C6   2C3   C2    3C2'  3C2'' i     2S3   2S6   s_h   3s_d  3s_v 
A_1g   1.00  1.00  1.00  1.00  1.00  1.00  1.00  1.00  1.00  1.00  1.00  1.00
A_2g   1.00  1.00  1.00  1.00 -1.00 -1.00  1.00  1.00  1.00  1.00 -1.00 -1.00
B_1g   1.00 -1.00  1.00 -1.00  1.00 -1.00  1.00 -1.00  1.00 -1.00  1.00 -1.00
B_2g   1.00 -1.00  1.00 -1.00 -1.00  1.00  1.00 -1.00  1.00 -1.00 -1.00  1.00
E_1g   2.00  1.00 -1.00 -2.00  0.00  0.00  2.00  1.00 -1.00 -2.00  0.00  0.00
E_2g   2.00 -1.00 -1.00  2.00  0.00  0.00  2.00 -1.00 -1.00  2.00  0.00  0.00
A_1u   1.00  1.00  1.00  1.00  1.00  1.00 -1.00 -1.00 -1.00 -1.00 -1.00 -1.00
A_2u   1.00  1.00  1.00  1.00 -1.00 -1.00 -1.00 -1.00 -1.00 -1.00  1.00  1.00
B_1u   1.00 -1.00  1.00 -1.00  1.00 -1.00 -1.00  1.00 -1.00  1.00 -1.00  1.00
B_2u   1.00 -1.00  1.00 -1.00 -1.00  1.00 -1.00  1.00 -1.00  1.00  1.00 -1.00
E_1u   2.00  1.00 -1.00 -2.00  0.00  0.00 -2.00 -1.00  1.00  2.00  0.00  0.00
E_2u   2.00 -1.00 -1.00  2.00  0.00  0.00 -2.00  1.00  1.00 -2.00  0.00  0.00

     the symmetry operations in each class and the name of the first element:

     E        1
                                                                 
     2C6      5    6
                                                                 
     2C3      7    8
                                                                 
     C2       2
                                                                 
     3C2'     4   12   11
                                                                 
     3C2''    3    9   10
                                                                 
     i       13
                                                                 
     2S3     17   18
                                                                 
     2S6     19   20
                                                                 
     s_h     14
                                                                 
     3s_d    16   24   23
                                                                 
     3s_v    15   21   22
                                                                 

     Band symmetry, D_6h(6/mmm) point group:

     e(  1 -  1) =    -18.71410  eV     1   --> A_1g           
     e(  2 -  2) =     -7.04825  eV     1   --> A_2u           
     e(  3 -  4) =     -2.41797  eV     2   --> E_2g           
     e(  5 -  5) =      3.64761  eV     1   --> A_1g           
     e(  6 -  6) =      6.96104  eV     1   --> A_2u           
     e(  7 -  8) =      8.90473  eV     2   --> E_1u           

 **************************************************************************

     BANDS        :      4.46s CPU      4.53s WALL


   This run was terminated on:  19:40: 9   1Jul2023            

=------------------------------------------------------------------------------=
   JOB DONE.
=------------------------------------------------------------------------------=
