
     Program PWSCF v.7.2 starts on  1Jul2023 at 19:39:21 

     This program is part of the open-source Quantum ESPRESSO suite
     for quantum simulation of materials; please cite
         "P. Giannozzi et al., J. Phys.:Condens. Matter 21 395502 (2009);
         "P. Giannozzi et al., J. Phys.:Condens. Matter 29 465901 (2017);
         "P. Giannozzi et al., J. Chem. Phys. 152 154105 (2020);
          URL http://www.quantum-espresso.org", 
     in publications or presentations arising from this work. More details at
     http://www.quantum-espresso.org/quote

     Parallel version (MPI), running on     1 processors

     MPI processes distributed on     1 nodes
     1543 MiB available memory on the printing compute node when the environment starts

     Waiting for input...
     Reading input from standard input

     Current dimensions of program PWSCF are:
     Max number of different atomic species (ntypx) = 10
     Max number of k-points (npk) =  40000
     Max angular momentum in pseudopotentials (lmaxx) =  4

     Atomic positions and unit cell read from directory:
     ./tmp/graphene/graphene.save/


     Subspace diagonalization in iterative solution of the eigenvalue problem:
     a serial algorithm will be used


     G-vector sticks info
     --------------------
     sticks:   dense  smooth     PW     G-vecs:    dense   smooth      PW
     Sum         595     241     85                35435     8973    1713

     Using Slab Decomposition



     bravais-lattice index     =            4
     lattice parameter (alat)  =       4.6540  a.u.
     unit-cell volume          =     261.8973 (a.u.)^3
     number of atoms/cell      =            2
     number of atomic types    =            1
     number of electrons       =         8.00
     number of Kohn-Sham states=            8
     kinetic-energy cutoff     =      40.0000  Ry
     charge density cutoff     =     400.0000  Ry
     Exchange-correlation= LDA
                           (   1   1   0   0   0   0   0)

     celldm(1)=   4.654000  celldm(2)=   0.000000  celldm(3)=   3.000000
     celldm(4)=   0.000000  celldm(5)=   0.000000  celldm(6)=   0.000000

     crystal axes: (cart. coord. in units of alat)
               a(1) = (   1.000000   0.000000   0.000000 )  
               a(2) = (  -0.500000   0.866025   0.000000 )  
               a(3) = (   0.000000   0.000000   3.000000 )  

     reciprocal axes: (cart. coord. in units 2 pi/alat)
               b(1) = (  1.000000  0.577350 -0.000000 )  
               b(2) = (  0.000000  1.154701  0.000000 )  
               b(3) = (  0.000000 -0.000000  0.333333 )  


     PseudoPot. # 1 for C  read from file:
     ./C.pz-n-rrkjus_psl.0.1.UPF
     MD5 check sum: a3cecbabebb5b3a1aff122f23eb09bb0
     Pseudo is Ultrasoft + core correction, Zval =  4.0
     Generated using "atomic" code by A. Dal Corso  v.5.0.2 svn rev. 9415
     Using radial grid of 1073 points,  4 beta functions with: 
                l(1) =   0
                l(2) =   0
                l(3) =   1
                l(4) =   1
     Q(r) pseudized with 0 coefficients 


     atomic species   valence    mass     pseudopotential
        C              4.00    12.01070     C ( 1.00)

     24 Sym. Ops., with inversion, found (12 have fractional translation)


                                    s                        frac. trans.

      isym =  1     identity                                     

 cryst.   s( 1) = (     1          0          0      )
                  (     0          1          0      )
                  (     0          0          1      )

 cart.    s( 1) = (  1.0000000  0.0000000  0.0000000 )
                  (  0.0000000  1.0000000  0.0000000 )
                  (  0.0000000  0.0000000  1.0000000 )


      isym =  2     180 deg rotation - cart. axis [0,0,1]        

 cryst.   s( 2) = (    -1          0          0      )    f =( -0.3333334 )
                  (     0         -1          0      )       (  0.3333333 )
                  (     0          0          1      )       (  0.0000000 )

 cart.    s( 2) = ( -1.0000000  0.0000000  0.0000000 )    f =( -0.5000000 )
                  (  0.0000000 -1.0000000  0.0000000 )       (  0.2886751 )
                  (  0.0000000  0.0000000  1.0000000 )       (  0.0000000 )


      isym =  3     180 deg rotation - cart. axis [0,1,0]        

 cryst.   s( 3) = (    -1          0          0      )
                  (     1          1          0      )
                  (     0          0         -1      )

 cart.    s( 3) = ( -1.0000000  0.0000000  0.0000000 )
                  (  0.0000000  1.0000000  0.0000000 )
                  (  0.0000000  0.0000000 -1.0000000 )


      isym =  4     180 deg rotation - cart. axis [1,0,0]        

 cryst.   s( 4) = (     1          0          0      )    f =( -0.3333334 )
                  (    -1         -1          0      )       (  0.3333333 )
                  (     0          0         -1      )       (  0.0000000 )

 cart.    s( 4) = (  1.0000000  0.0000000  0.0000000 )    f =( -0.5000000 )
                  (  0.0000000 -1.0000000  0.0000000 )       (  0.2886751 )
                  (  0.0000000  0.0000000 -1.0000000 )       (  0.0000000 )


      isym =  5      60 deg rotation - cryst. axis [0,0,1]       

 cryst.   s( 5) = (     1          1          0      )    f =( -0.3333334 )
                  (    -1          0          0      )       (  0.3333334 )
                  (     0          0          1      )       (  0.0000000 )

 cart.    s( 5) = (  0.5000000 -0.8660254  0.0000000 )    f =( -0.5000000 )
                  (  0.8660254  0.5000000  0.0000000 )       (  0.2886751 )
                  (  0.0000000  0.0000000  1.0000000 )       (  0.0000000 )


      isym =  6      60 deg rotation - cryst. axis [0,0,-1]      

 cryst.   s( 6) = (     0         -1          0      )    f =( -0.3333333 )
                  (     1          1          0      )       (  0.3333334 )
                  (     0          0          1      )       (  0.0000000 )

 cart.    s( 6) = (  0.5000000  0.8660254  0.0000000 )    f =( -0.5000000 )
                  ( -0.8660254  0.5000000  0.0000000 )       (  0.2886751 )
                  (  0.0000000  0.0000000  1.0000000 )       (  0.0000000 )


      isym =  7     120 deg rotation - cryst. axis [0,0,1]       

 cryst.   s( 7) = (     0          1          0      )
                  (    -1         -1          0      )
                  (     0          0          1      )

 cart.    s( 7) = ( -0.5000000 -0.8660254  0.0000000 )
                  (  0.8660254 -0.5000000  0.0000000 )
                  (  0.0000000  0.0000000  1.0000000 )


      isym =  8     120 deg rotation - cryst. axis [0,0,-1]      

 cryst.   s( 8) = (    -1         -1          0      )
                  (     1          0          0      )
                  (     0          0          1      )

 cart.    s( 8) = ( -0.5000000  0.8660254  0.0000000 )
                  ( -0.8660254 -0.5000000  0.0000000 )
                  (  0.0000000  0.0000000  1.0000000 )


      isym =  9     180 deg rotation - cryst. axis [1,-1,0]      

 cryst.   s( 9) = (     0         -1          0      )
                  (    -1          0          0      )
                  (     0          0         -1      )

 cart.    s( 9) = (  0.5000000 -0.8660254  0.0000000 )
                  ( -0.8660254 -0.5000000  0.0000000 )
                  (  0.0000000  0.0000000 -1.0000000 )


      isym = 10     180 deg rotation - cryst. axis [2,1,0]       

 cryst.   s(10) = (     1          1          0      )
                  (     0         -1          0      )
                  (     0          0         -1      )

 cart.    s(10) = (  0.5000000  0.8660254  0.0000000 )
                  (  0.8660254 -0.5000000  0.0000000 )
                  (  0.0000000  0.0000000 -1.0000000 )


      isym = 11     180 deg rotation - cryst. axis [0,1,0]       

 cryst.   s(11) = (    -1         -1          0      )    f =( -0.3333334 )
                  (     0          1          0      )       (  0.3333334 )
                  (     0          0         -1      )       (  0.0000000 )

 cart.    s(11) = ( -0.5000000 -0.8660254  0.0000000 )    f =( -0.5000000 )
                  ( -0.8660254  0.5000000  0.0000000 )       (  0.2886751 )
                  (  0.0000000  0.0000000 -1.0000000 )       (  0.0000000 )


      isym = 12     180 deg rotation - cryst. axis [1,1,0]       

 cryst.   s(12) = (     0          1          0      )    f =( -0.3333333 )
                  (     1          0          0      )       (  0.3333334 )
                  (     0          0         -1      )       (  0.0000000 )

 cart.    s(12) = ( -0.5000000  0.8660254  0.0000000 )    f =( -0.5000000 )
                  (  0.8660254  0.5000000  0.0000000 )       (  0.2886751 )
                  (  0.0000000  0.0000000 -1.0000000 )       (  0.0000000 )


      isym = 13     inversion                                    

 cryst.   s(13) = (    -1          0          0      )    f =( -0.3333334 )
                  (     0         -1          0      )       (  0.3333333 )
                  (     0          0         -1      )       (  0.0000000 )

 cart.    s(13) = ( -1.0000000  0.0000000  0.0000000 )    f =( -0.5000000 )
                  (  0.0000000 -1.0000000  0.0000000 )       (  0.2886751 )
                  (  0.0000000  0.0000000 -1.0000000 )       (  0.0000000 )


      isym = 14     inv. 180 deg rotation - cart. axis [0,0,1]   

 cryst.   s(14) = (     1          0          0      )
                  (     0          1          0      )
                  (     0          0         -1      )

 cart.    s(14) = (  1.0000000  0.0000000  0.0000000 )
                  (  0.0000000  1.0000000  0.0000000 )
                  (  0.0000000  0.0000000 -1.0000000 )


      isym = 15     inv. 180 deg rotation - cart. axis [0,1,0]   

 cryst.   s(15) = (     1          0          0      )    f =( -0.3333334 )
                  (    -1         -1          0      )       (  0.3333333 )
                  (     0          0          1      )       (  0.0000000 )

 cart.    s(15) = (  1.0000000  0.0000000  0.0000000 )    f =( -0.5000000 )
                  (  0.0000000 -1.0000000  0.0000000 )       (  0.2886751 )
                  (  0.0000000  0.0000000  1.0000000 )       (  0.0000000 )


      isym = 16     inv. 180 deg rotation - cart. axis [1,0,0]   

 cryst.   s(16) = (    -1          0          0      )
                  (     1          1          0      )
                  (     0          0          1      )

 cart.    s(16) = ( -1.0000000  0.0000000  0.0000000 )
                  (  0.0000000  1.0000000  0.0000000 )
                  (  0.0000000  0.0000000  1.0000000 )


      isym = 17     inv.  60 deg rotation - cryst. axis [0,0,1]  

 cryst.   s(17) = (    -1         -1          0      )
                  (     1          0          0      )
                  (     0          0         -1      )

 cart.    s(17) = ( -0.5000000  0.8660254  0.0000000 )
                  ( -0.8660254 -0.5000000  0.0000000 )
                  (  0.0000000  0.0000000 -1.0000000 )


      isym = 18     inv.  60 deg rotation - cryst. axis [0,0,-1] 

 cryst.   s(18) = (     0          1          0      )
                  (    -1         -1          0      )
                  (     0          0         -1      )

 cart.    s(18) = ( -0.5000000 -0.8660254  0.0000000 )
                  (  0.8660254 -0.5000000  0.0000000 )
                  (  0.0000000  0.0000000 -1.0000000 )


      isym = 19     inv. 120 deg rotation - cryst. axis [0,0,1]  

 cryst.   s(19) = (     0         -1          0      )    f =( -0.3333333 )
                  (     1          1          0      )       (  0.3333334 )
                  (     0          0         -1      )       (  0.0000000 )

 cart.    s(19) = (  0.5000000  0.8660254  0.0000000 )    f =( -0.5000000 )
                  ( -0.8660254  0.5000000  0.0000000 )       (  0.2886751 )
                  (  0.0000000  0.0000000 -1.0000000 )       (  0.0000000 )


      isym = 20     inv. 120 deg rotation - cryst. axis [0,0,-1] 

 cryst.   s(20) = (     1          1          0      )    f =( -0.3333334 )
                  (    -1          0          0      )       (  0.3333334 )
                  (     0          0         -1      )       (  0.0000000 )

 cart.    s(20) = (  0.5000000 -0.8660254  0.0000000 )    f =( -0.5000000 )
                  (  0.8660254  0.5000000  0.0000000 )       (  0.2886751 )
                  (  0.0000000  0.0000000 -1.0000000 )       (  0.0000000 )


      isym = 21     inv. 180 deg rotation - cryst. axis [1,-1,0] 

 cryst.   s(21) = (     0          1          0      )    f =( -0.3333333 )
                  (     1          0          0      )       (  0.3333334 )
                  (     0          0          1      )       (  0.0000000 )

 cart.    s(21) = ( -0.5000000  0.8660254  0.0000000 )    f =( -0.5000000 )
                  (  0.8660254  0.5000000  0.0000000 )       (  0.2886751 )
                  (  0.0000000  0.0000000  1.0000000 )       (  0.0000000 )


      isym = 22     inv. 180 deg rotation - cryst. axis [2,1,0]  

 cryst.   s(22) = (    -1         -1          0      )    f =( -0.3333334 )
                  (     0          1          0      )       (  0.3333334 )
                  (     0          0          1      )       (  0.0000000 )

 cart.    s(22) = ( -0.5000000 -0.8660254  0.0000000 )    f =( -0.5000000 )
                  ( -0.8660254  0.5000000  0.0000000 )       (  0.2886751 )
                  (  0.0000000  0.0000000  1.0000000 )       (  0.0000000 )


      isym = 23     inv. 180 deg rotation - cryst. axis [0,1,0]  

 cryst.   s(23) = (     1          1          0      )
                  (     0         -1          0      )
                  (     0          0          1      )

 cart.    s(23) = (  0.5000000  0.8660254  0.0000000 )
                  (  0.8660254 -0.5000000  0.0000000 )
                  (  0.0000000  0.0000000  1.0000000 )


      isym = 24     inv. 180 deg rotation - cryst. axis [1,1,0]  

 cryst.   s(24) = (     0         -1          0      )
                  (    -1          0          0      )
                  (     0          0          1      )

 cart.    s(24) = (  0.5000000 -0.8660254  0.0000000 )
                  ( -0.8660254 -0.5000000  0.0000000 )
                  (  0.0000000  0.0000000  1.0000000 )


     point group D_6h(6/mmm)
     there are 12 classes
     the character table:

       E     2C6   2C3   C2    3C2'  3C2'' i     2S3   2S6   s_h   3s_d  3s_v 
A_1g   1.00  1.00  1.00  1.00  1.00  1.00  1.00  1.00  1.00  1.00  1.00  1.00
A_2g   1.00  1.00  1.00  1.00 -1.00 -1.00  1.00  1.00  1.00  1.00 -1.00 -1.00
B_1g   1.00 -1.00  1.00 -1.00  1.00 -1.00  1.00 -1.00  1.00 -1.00  1.00 -1.00
B_2g   1.00 -1.00  1.00 -1.00 -1.00  1.00  1.00 -1.00  1.00 -1.00 -1.00  1.00
E_1g   2.00  1.00 -1.00 -2.00  0.00  0.00  2.00  1.00 -1.00 -2.00  0.00  0.00
E_2g   2.00 -1.00 -1.00  2.00  0.00  0.00  2.00 -1.00 -1.00  2.00  0.00  0.00
A_1u   1.00  1.00  1.00  1.00  1.00  1.00 -1.00 -1.00 -1.00 -1.00 -1.00 -1.00
A_2u   1.00  1.00  1.00  1.00 -1.00 -1.00 -1.00 -1.00 -1.00 -1.00  1.00  1.00
B_1u   1.00 -1.00  1.00 -1.00  1.00 -1.00 -1.00  1.00 -1.00  1.00 -1.00  1.00
B_2u   1.00 -1.00  1.00 -1.00 -1.00  1.00 -1.00  1.00 -1.00  1.00  1.00 -1.00
E_1u   2.00  1.00 -1.00 -2.00  0.00  0.00 -2.00 -1.00  1.00  2.00  0.00  0.00
E_2u   2.00 -1.00 -1.00  2.00  0.00  0.00 -2.00  1.00  1.00 -2.00  0.00  0.00

     the symmetry operations in each class and the name of the first element:

     E        1
          identity                                               
     2C6      5    6
           60 deg rotation - cryst. axis [0,0,1]                 
     2C3      7    8
          120 deg rotation - cryst. axis [0,0,1]                 
     C2       2
          180 deg rotation - cart. axis [0,0,1]                  
     3C2'     4   12   11
          180 deg rotation - cart. axis [1,0,0]                  
     3C2''    3    9   10
          180 deg rotation - cart. axis [0,1,0]                  
     i       13
          inversion                                              
     2S3     17   18
          inv.  60 deg rotation - cryst. axis [0,0,1]            
     2S6     19   20
          inv. 120 deg rotation - cryst. axis [0,0,1]            
     s_h     14
          inv. 180 deg rotation - cart. axis [0,0,1]             
     3s_d    16   24   23
          inv. 180 deg rotation - cart. axis [1,0,0]             
     3s_v    15   21   22
          inv. 180 deg rotation - cart. axis [0,1,0]             

   Cartesian axes

     site n.     atom                  positions (alat units)
         1           C   tau(   1) = (   0.0000000   0.0000000   0.0000000  )
         2           C   tau(   2) = (   0.0000000   0.5773503   0.0000000  )

   Crystallographic axes

     site n.     atom                  positions (cryst. coord.)
         1           C   tau(   1) = (  0.0000000  0.0000000  0.0000000  )
         2           C   tau(   2) = (  0.3333334  0.6666667  0.0000000  )

     number of k points=    48
                       cart. coord. in units 2pi/alat
        k(    1) = (   0.0000000   0.0000000   0.0000000), wk =   0.0416667
        k(    2) = (   0.0166667   0.0288675   0.0000000), wk =   0.0416667
        k(    3) = (   0.0333333   0.0577350   0.0000000), wk =   0.0416667
        k(    4) = (   0.0500000   0.0866025   0.0000000), wk =   0.0416667
        k(    5) = (   0.0666667   0.1154701   0.0000000), wk =   0.0416667
        k(    6) = (   0.0833333   0.1443376   0.0000000), wk =   0.0416667
        k(    7) = (   0.1000000   0.1732051   0.0000000), wk =   0.0416667
        k(    8) = (   0.1166667   0.2020726   0.0000000), wk =   0.0416667
        k(    9) = (   0.1333333   0.2309401   0.0000000), wk =   0.0416667
        k(   10) = (   0.1500000   0.2598076   0.0000000), wk =   0.0416667
        k(   11) = (   0.1666667   0.2886751   0.0000000), wk =   0.0416667
        k(   12) = (   0.1833333   0.3175426   0.0000000), wk =   0.0416667
        k(   13) = (   0.2000000   0.3464102   0.0000000), wk =   0.0416667
        k(   14) = (   0.2166667   0.3752777   0.0000000), wk =   0.0416667
        k(   15) = (   0.2333333   0.4041452   0.0000000), wk =   0.0416667
        k(   16) = (   0.2500000   0.4330127   0.0000000), wk =   0.0416667
        k(   17) = (   0.2666667   0.4618802   0.0000000), wk =   0.0416667
        k(   18) = (   0.2833333   0.4907477   0.0000000), wk =   0.0416667
        k(   19) = (   0.3000000   0.5196152   0.0000000), wk =   0.0416667
        k(   20) = (   0.3166667   0.5484828   0.0000000), wk =   0.0416667
        k(   21) = (   0.3333333   0.5773503   0.0000000), wk =   0.0416667
        k(   22) = (   0.3000000   0.5773503   0.0000000), wk =   0.0416667
        k(   23) = (   0.2666667   0.5773503   0.0000000), wk =   0.0416667
        k(   24) = (   0.2333333   0.5773503   0.0000000), wk =   0.0416667
        k(   25) = (   0.2000000   0.5773503   0.0000000), wk =   0.0416667
        k(   26) = (   0.1666667   0.5773503   0.0000000), wk =   0.0416667
        k(   27) = (   0.1333333   0.5773503   0.0000000), wk =   0.0416667
        k(   28) = (   0.1000000   0.5773503   0.0000000), wk =   0.0416667
        k(   29) = (   0.0666667   0.5773503   0.0000000), wk =   0.0416667
        k(   30) = (   0.0333333   0.5773503   0.0000000), wk =   0.0416667
        k(   31) = (   0.0000000   0.5773503   0.0000000), wk =   0.0416667
        k(   32) = (   0.0000000   0.5433885   0.0000000), wk =   0.0416667
        k(   33) = (   0.0000000   0.5094267   0.0000000), wk =   0.0416667
        k(   34) = (   0.0000000   0.4754649   0.0000000), wk =   0.0416667
        k(   35) = (   0.0000000   0.4415031   0.0000000), wk =   0.0416667
        k(   36) = (   0.0000000   0.4075414   0.0000000), wk =   0.0416667
        k(   37) = (   0.0000000   0.3735796   0.0000000), wk =   0.0416667
        k(   38) = (   0.0000000   0.3396178   0.0000000), wk =   0.0416667
        k(   39) = (   0.0000000   0.3056560   0.0000000), wk =   0.0416667
        k(   40) = (   0.0000000   0.2716942   0.0000000), wk =   0.0416667
        k(   41) = (   0.0000000   0.2377325   0.0000000), wk =   0.0416667
        k(   42) = (   0.0000000   0.2037707   0.0000000), wk =   0.0416667
        k(   43) = (   0.0000000   0.1698089   0.0000000), wk =   0.0416667
        k(   44) = (   0.0000000   0.1358471   0.0000000), wk =   0.0416667
        k(   45) = (   0.0000000   0.1018853   0.0000000), wk =   0.0416667
        k(   46) = (   0.0000000   0.0679236   0.0000000), wk =   0.0416667
        k(   47) = (   0.0000000   0.0339618   0.0000000), wk =   0.0416667
        k(   48) = (   0.0000000   0.0000000   0.0000000), wk =   0.0416667

                       cryst. coord.
        k(    1) = (   0.0000000   0.0000000   0.0000000), wk =   0.0416667
        k(    2) = (   0.0166667   0.0166667   0.0000000), wk =   0.0416667
        k(    3) = (   0.0333333   0.0333333   0.0000000), wk =   0.0416667
        k(    4) = (   0.0500000   0.0500000   0.0000000), wk =   0.0416667
        k(    5) = (   0.0666667   0.0666667   0.0000000), wk =   0.0416667
        k(    6) = (   0.0833333   0.0833333   0.0000000), wk =   0.0416667
        k(    7) = (   0.1000000   0.1000000   0.0000000), wk =   0.0416667
        k(    8) = (   0.1166667   0.1166667   0.0000000), wk =   0.0416667
        k(    9) = (   0.1333333   0.1333333   0.0000000), wk =   0.0416667
        k(   10) = (   0.1500000   0.1500000   0.0000000), wk =   0.0416667
        k(   11) = (   0.1666667   0.1666667   0.0000000), wk =   0.0416667
        k(   12) = (   0.1833333   0.1833333   0.0000000), wk =   0.0416667
        k(   13) = (   0.2000000   0.2000000   0.0000000), wk =   0.0416667
        k(   14) = (   0.2166667   0.2166667   0.0000000), wk =   0.0416667
        k(   15) = (   0.2333333   0.2333333   0.0000000), wk =   0.0416667
        k(   16) = (   0.2500000   0.2500000   0.0000000), wk =   0.0416667
        k(   17) = (   0.2666667   0.2666667   0.0000000), wk =   0.0416667
        k(   18) = (   0.2833333   0.2833333   0.0000000), wk =   0.0416667
        k(   19) = (   0.3000000   0.3000000   0.0000000), wk =   0.0416667
        k(   20) = (   0.3166667   0.3166667   0.0000000), wk =   0.0416667
        k(   21) = (   0.3333333   0.3333333   0.0000000), wk =   0.0416667
        k(   22) = (   0.3000000   0.3500000   0.0000000), wk =   0.0416667
        k(   23) = (   0.2666667   0.3666667   0.0000000), wk =   0.0416667
        k(   24) = (   0.2333333   0.3833333   0.0000000), wk =   0.0416667
        k(   25) = (   0.2000000   0.4000000   0.0000000), wk =   0.0416667
        k(   26) = (   0.1666667   0.4166667   0.0000000), wk =   0.0416667
        k(   27) = (   0.1333333   0.4333333   0.0000000), wk =   0.0416667
        k(   28) = (   0.1000000   0.4500000   0.0000000), wk =   0.0416667
        k(   29) = (   0.0666667   0.4666667   0.0000000), wk =   0.0416667
        k(   30) = (   0.0333333   0.4833333   0.0000000), wk =   0.0416667
        k(   31) = (   0.0000000   0.5000000   0.0000000), wk =   0.0416667
        k(   32) = (   0.0000000   0.4705882   0.0000000), wk =   0.0416667
        k(   33) = (   0.0000000   0.4411765   0.0000000), wk =   0.0416667
        k(   34) = (   0.0000000   0.4117647   0.0000000), wk =   0.0416667
        k(   35) = (   0.0000000   0.3823529   0.0000000), wk =   0.0416667
        k(   36) = (   0.0000000   0.3529412   0.0000000), wk =   0.0416667
        k(   37) = (   0.0000000   0.3235294   0.0000000), wk =   0.0416667
        k(   38) = (   0.0000000   0.2941176   0.0000000), wk =   0.0416667
        k(   39) = (   0.0000000   0.2647059   0.0000000), wk =   0.0416667
        k(   40) = (   0.0000000   0.2352941   0.0000000), wk =   0.0416667
        k(   41) = (   0.0000000   0.2058824   0.0000000), wk =   0.0416667
        k(   42) = (   0.0000000   0.1764706   0.0000000), wk =   0.0416667
        k(   43) = (   0.0000000   0.1470588   0.0000000), wk =   0.0416667
        k(   44) = (   0.0000000   0.1176471   0.0000000), wk =   0.0416667
        k(   45) = (   0.0000000   0.0882353   0.0000000), wk =   0.0416667
        k(   46) = (   0.0000000   0.0588235   0.0000000), wk =   0.0416667
        k(   47) = (   0.0000000   0.0294118   0.0000000), wk =   0.0416667
        k(   48) = (   0.0000000   0.0000000   0.0000000), wk =   0.0416667

     Dense  grid:    35435 G-vectors     FFT dimensions: (  30,  30,  90)

     Smooth grid:     8973 G-vectors     FFT dimensions: (  24,  24,  60)

     Dynamical RAM for                 wfc:       0.14 MB

     Dynamical RAM for     wfc (w. buffer):       0.14 MB

     Dynamical RAM for           str. fact:       0.54 MB

     Dynamical RAM for           local pot:       0.00 MB

     Dynamical RAM for          nlocal pot:       0.27 MB

     Dynamical RAM for                qrad:       0.46 MB

     Dynamical RAM for          rho,v,vnew:       3.48 MB

     Dynamical RAM for           G-vectors:       2.10 MB

     Dynamical RAM for          h,s,v(r/c):       0.01 MB

     Dynamical RAM for          <psi|beta>:       0.00 MB

     Dynamical RAM for                 psi:       0.27 MB

     Dynamical RAM for                hpsi:       0.27 MB

     Dynamical RAM for                spsi:       0.27 MB

     Dynamical RAM for      wfcinit/wfcrot:       0.27 MB

     Dynamical RAM for           addusdens:      24.33 MB

     Estimated static dynamical RAM per process >      11.15 MB

     Estimated max dynamical RAM per process >      35.48 MB

     Check: negative core charge=   -0.000002

     The potential is recalculated from file :
     ./tmp/graphene/graphene.save/charge-density


     negative rho (up, down):  1.154E-06 0.000E+00
     Starting wfcs are    8 randomized atomic wfcs

     Band Structure Calculation
     Davidson diagonalization with overlap

     Computing kpt #:     1  of    48
     total cpu time spent up to now is        0.7 secs

     Computing kpt #:     2  of    48
     total cpu time spent up to now is        1.1 secs

     Computing kpt #:     3  of    48
     total cpu time spent up to now is        1.5 secs

     Computing kpt #:     4  of    48
     c_bands:  1 eigenvalues not converged
     total cpu time spent up to now is        2.0 secs

     Computing kpt #:     5  of    48
     c_bands:  1 eigenvalues not converged
     total cpu time spent up to now is        2.4 secs

     Computing kpt #:     6  of    48
     total cpu time spent up to now is        2.8 secs

     Computing kpt #:     7  of    48
     total cpu time spent up to now is        3.2 secs

     Computing kpt #:     8  of    48
     total cpu time spent up to now is        3.5 secs

     Computing kpt #:     9  of    48
     total cpu time spent up to now is        3.8 secs

     Computing kpt #:    10  of    48
     total cpu time spent up to now is        4.2 secs

     Computing kpt #:    11  of    48
     total cpu time spent up to now is        4.5 secs

     Computing kpt #:    12  of    48
     total cpu time spent up to now is        4.9 secs

     Computing kpt #:    13  of    48
     total cpu time spent up to now is        5.3 secs

     Computing kpt #:    14  of    48
     total cpu time spent up to now is        5.7 secs

     Computing kpt #:    15  of    48
     total cpu time spent up to now is        6.2 secs

     Computing kpt #:    16  of    48
     total cpu time spent up to now is        6.6 secs

     Computing kpt #:    17  of    48
     total cpu time spent up to now is        7.1 secs

     Computing kpt #:    18  of    48
     c_bands:  1 eigenvalues not converged
     total cpu time spent up to now is        7.5 secs

     Computing kpt #:    19  of    48
     total cpu time spent up to now is        8.0 secs

     Computing kpt #:    20  of    48
     total cpu time spent up to now is        8.5 secs

     Computing kpt #:    21  of    48
     total cpu time spent up to now is        8.9 secs

     Computing kpt #:    22  of    48
     total cpu time spent up to now is        9.3 secs

     Computing kpt #:    23  of    48
     total cpu time spent up to now is        9.7 secs

     Computing kpt #:    24  of    48
     total cpu time spent up to now is       10.1 secs

     Computing kpt #:    25  of    48
     total cpu time spent up to now is       10.5 secs

     Computing kpt #:    26  of    48
     total cpu time spent up to now is       10.9 secs

     Computing kpt #:    27  of    48
     total cpu time spent up to now is       11.2 secs

     Computing kpt #:    28  of    48
     total cpu time spent up to now is       11.5 secs

     Computing kpt #:    29  of    48
     total cpu time spent up to now is       11.8 secs

     Computing kpt #:    30  of    48
     total cpu time spent up to now is       12.1 secs

     Computing kpt #:    31  of    48
     total cpu time spent up to now is       12.4 secs

     Computing kpt #:    32  of    48
     total cpu time spent up to now is       12.8 secs

     Computing kpt #:    33  of    48
     total cpu time spent up to now is       13.1 secs

     Computing kpt #:    34  of    48
     total cpu time spent up to now is       13.4 secs

     Computing kpt #:    35  of    48
     total cpu time spent up to now is       13.7 secs

     Computing kpt #:    36  of    48
     total cpu time spent up to now is       14.0 secs

     Computing kpt #:    37  of    48
     total cpu time spent up to now is       14.3 secs

     Computing kpt #:    38  of    48
     total cpu time spent up to now is       14.6 secs

     Computing kpt #:    39  of    48
     total cpu time spent up to now is       15.0 secs

     Computing kpt #:    40  of    48
     total cpu time spent up to now is       15.4 secs

     Computing kpt #:    41  of    48
     total cpu time spent up to now is       15.7 secs

     Computing kpt #:    42  of    48
     total cpu time spent up to now is       16.1 secs

     Computing kpt #:    43  of    48
     total cpu time spent up to now is       16.6 secs

     Computing kpt #:    44  of    48
     total cpu time spent up to now is       17.0 secs

     Computing kpt #:    45  of    48
     c_bands:  1 eigenvalues not converged
     total cpu time spent up to now is       17.5 secs

     Computing kpt #:    46  of    48
     total cpu time spent up to now is       17.9 secs

     Computing kpt #:    47  of    48
     total cpu time spent up to now is       18.3 secs

     Computing kpt #:    48  of    48
     total cpu time spent up to now is       18.6 secs

     ethr =  1.25E-10,  avg # of iterations = 78.3

     total cpu time spent up to now is       18.6 secs

     End of band structure calculation

          k = 0.0000 0.0000 0.0000 (  1133 PWs)   bands (ev):

   -18.7141  -7.0483  -2.4180  -2.4180   3.6476   6.9610   8.9047   8.9047

          k = 0.0167 0.0289 0.0000 (  1129 PWs)   bands (ev):

   -18.6945  -7.0246  -2.4974  -2.4616   3.6743   6.9865   8.9110   8.9902

          k = 0.0333 0.0577 0.0000 (  1127 PWs)   bands (ev):

   -18.6357  -6.9536  -2.7272  -2.5909   3.7543   7.0630   8.9349   9.2339

          k = 0.0500 0.0866 0.0000 (  1121 PWs)   bands (ev):

   -18.5378  -6.8356  -3.0843  -2.8015   3.8878   7.1901   8.9873   9.5018

          k = 0.0667 0.1155 0.0000 (  1117 PWs)   bands (ev):

   -18.4009  -6.6708  -3.5397  -3.0863   4.0747   7.3675   9.0763   9.6935

          k = 0.0833 0.1443 0.0000 (  1123 PWs)   bands (ev):

   -18.2252  -6.4599  -4.0648  -3.4366   4.3151   7.5945   9.2066   9.9350

          k = 0.1000 0.1732 0.0000 (  1123 PWs)   bands (ev):

   -18.0110  -6.2035  -4.6350  -3.8418   4.6088   7.8701   9.3818   9.8102

          k = 0.1167 0.2021 0.0000 (  1129 PWs)   bands (ev):

   -17.7585  -5.9025  -5.2312  -4.2914   4.9559   8.1928   9.1477   9.6026

          k = 0.1333 0.2309 0.0000 (  1123 PWs)   bands (ev):

   -17.4682  -5.8386  -5.5583  -4.7746   5.3561   8.4452   8.5605   9.8692

          k = 0.1500 0.2598 0.0000 (  1119 PWs)   bands (ev):

   -17.1405  -6.4463  -5.2814  -5.1723   5.8093   7.7177   8.9697  10.1800

          k = 0.1667 0.2887 0.0000 (  1127 PWs)   bands (ev):

   -16.7762  -7.0460  -5.8023  -4.7464   6.3151   6.9785   9.4149  10.5323

          k = 0.1833 0.3175 0.0000 (  1125 PWs)   bands (ev):

   -16.3760  -7.6316  -6.3289  -4.2833   6.2386   6.8730   9.8870  10.9229

          k = 0.2000 0.3464 0.0000 (  1127 PWs)   bands (ev):

   -15.9411  -8.1987  -6.8539  -3.7860   5.5070   7.4823  10.3695  11.3464

          k = 0.2167 0.3753 0.0000 (  1119 PWs)   bands (ev):

   -15.4728  -8.7437  -7.3703  -3.2587   4.7912   8.1421  10.8319  11.7958

          k = 0.2333 0.4041 0.0000 (  1117 PWs)   bands (ev):

   -14.9732  -9.2641  -7.8721  -2.7064   4.0973   8.8507  11.2192  12.2605

          k = 0.2500 0.4330 0.0000 (  1111 PWs)   bands (ev):

   -14.4451  -9.7578  -8.3533  -2.1360   3.4303   9.6054  11.4534  12.7239

          k = 0.2667 0.4619 0.0000 (  1107 PWs)   bands (ev):

   -13.8928 -10.2233  -8.8072  -1.5558   2.7942  10.4013  11.4890  13.1600

          k = 0.2833 0.4907 0.0000 (  1101 PWs)   bands (ev):

   -13.3240 -10.6595  -9.2254  -0.9764   2.1925  11.2290  11.3783  13.5273

          k = 0.3000 0.5196 0.0000 (  1111 PWs)   bands (ev):

   -12.7530 -11.0655  -9.5931  -0.4109   1.6276  11.2204  12.0663  13.5849

          k = 0.3167 0.5485 0.0000 (  1113 PWs)   bands (ev):

   -12.2129 -11.4406  -9.8784   0.1258   1.1019  11.0931  12.8517  13.5230

          k = 0.3333 0.5774 0.0000 (  1137 PWs)   bands (ev):

   -11.7842 -11.7842 -10.0030   0.6172   0.6172  11.0436  13.3628  13.3628

          k = 0.3000 0.5774 0.0000 (  1112 PWs)   bands (ev):

   -12.0958 -11.5965  -9.8409   0.1752   1.0483  11.0993  13.1287  13.2783

          k = 0.2667 0.5774 0.0000 (  1110 PWs)   bands (ev):

   -12.3753 -11.6473  -9.4011  -0.2231   1.4073  11.2709  12.8571  12.9593

          k = 0.2333 0.5774 0.0000 (  1110 PWs)   bands (ev):

   -12.6223 -11.8019  -8.8262  -0.5765   1.6897  11.5530  12.3300  12.5797

          k = 0.2000 0.5774 0.0000 (  1104 PWs)   bands (ev):

   -12.8366 -11.9786  -8.2098  -0.8843   1.8986  11.4667  11.9231  12.3175

          k = 0.1667 0.5774 0.0000 (  1104 PWs)   bands (ev):

   -13.0181 -12.1458  -7.5995  -1.1459   2.0438  10.5948  12.0834  12.2120

          k = 0.1333 0.5774 0.0000 (  1114 PWs)   bands (ev):

   -13.1669 -12.2905  -7.0292  -1.3605   2.1385   9.7872  11.8851  11.9987

          k = 0.1000 0.5774 0.0000 (  1114 PWs)   bands (ev):

   -13.2826 -12.4066  -6.5317  -1.5279   2.1962   9.0941  11.7274  11.8305

          k = 0.0667 0.5774 0.0000 (  1124 PWs)   bands (ev):

   -13.3653 -12.4912  -6.1409  -1.6477   2.2287   8.5583  11.6131  11.7091

          k = 0.0333 0.5774 0.0000 (  1120 PWs)   bands (ev):

   -13.4149 -12.5424  -5.8895  -1.7196   2.2447   8.2182  11.5439  11.6359

          k = 0.0000 0.5774 0.0000 (  1120 PWs)   bands (ev):

   -13.4314 -12.5596  -5.8026  -1.7436   2.2494   8.1011  11.5207  11.6114

          k = 0.0000 0.5434 0.0000 (  1128 PWs)   bands (ev):

   -13.7578 -12.2032  -5.7822  -1.8765   2.4142   8.1104  10.6847  12.4861

          k = 0.0000 0.5094 0.0000 (  1128 PWs)   bands (ev):

   -14.2927 -11.5785  -5.7213  -2.2213   2.8540   8.1381   9.8509  12.6202

          k = 0.0000 0.4755 0.0000 (  1128 PWs)   bands (ev):

   -14.8329 -10.8898  -5.6205  -2.6817   3.4702   8.1795   9.0698  11.9642

          k = 0.0000 0.4415 0.0000 (  1114 PWs)   bands (ev):

   -15.3497 -10.1677  -5.4809  -3.1877   4.1896   8.1702   8.4074  11.3219

          k = 0.0000 0.4075 0.0000 (  1120 PWs)   bands (ev):

   -15.8356  -9.4224  -5.3041  -3.7003   4.9678   7.6125   8.3602  10.7094

          k = 0.0000 0.3736 0.0000 (  1110 PWs)   bands (ev):

   -16.2871  -8.6609  -5.0924  -4.1982   5.7768   6.9887   8.4445  10.1353

          k = 0.0000 0.3396 0.0000 (  1110 PWs)   bands (ev):

   -16.7026  -7.8901  -4.8487  -4.6693   6.4125   6.5951   8.5429   9.6054

          k = 0.0000 0.3057 0.0000 (  1110 PWs)   bands (ev):

   -17.0808  -7.1174  -5.1062  -4.5771   5.8890   7.4014   8.6456   9.1280

          k = 0.0000 0.2717 0.0000 (  1118 PWs)   bands (ev):

   -17.4209  -6.3520  -5.5042  -4.2829   5.4196   8.1371   8.7449   8.7479

          k = 0.0000 0.2377 0.0000 (  1128 PWs)   bands (ev):

   -17.7222  -5.8602  -5.6050  -3.9730   5.0048   8.2073   8.8326   9.0462

          k = 0.0000 0.2038 0.0000 (  1132 PWs)   bands (ev):

   -17.9843  -6.1719  -4.8903  -3.6564   4.6450   7.8991   8.9003   9.7214

          k = 0.0000 0.1698 0.0000 (  1122 PWs)   bands (ev):

   -18.2066  -6.4377  -4.2249  -3.3446   4.3403   7.6173   8.9415   9.9409

          k = 0.0000 0.1358 0.0000 (  1114 PWs)   bands (ev):

   -18.3890  -6.6565  -3.6291  -3.0519   4.0909   7.3827   8.9544   9.6996

          k = 0.0000 0.1019 0.0000 (  1122 PWs)   bands (ev):

   -18.5311  -6.8275  -3.1267  -2.7952   3.8969   7.1988   8.9451   9.5050

          k = 0.0000 0.0679 0.0000 (  1126 PWs)   bands (ev):

   -18.6327  -6.9500  -2.7427  -2.5930   3.7584   7.0668   8.9262   9.2570

          k = 0.0000 0.0340 0.0000 (  1131 PWs)   bands (ev):

   -18.6937  -7.0237  -2.5007  -2.4629   3.6753   6.9875   8.9105   8.9940

          k = 0.0000 0.0000 0.0000 (  1133 PWs)   bands (ev):

   -18.7141  -7.0483  -2.4180  -2.4180   3.6476   6.9610   8.9047   8.9047

     Writing all to output data dir ./tmp/graphene/graphene.save/

     init_run     :      0.29s CPU      0.33s WALL (       1 calls)
     electrons    :     17.98s CPU     18.22s WALL (       1 calls)

     Called by init_run:
     wfcinit      :      0.00s CPU      0.00s WALL (       1 calls)
     wfcinit:atom :      0.01s CPU      0.01s WALL (      48 calls)
     wfcinit:wfcr :      0.38s CPU      0.40s WALL (      48 calls)
     potinit      :      0.01s CPU      0.01s WALL (       1 calls)
     hinit0       :      0.24s CPU      0.27s WALL (       1 calls)

     Called by electrons:
     c_bands      :     17.98s CPU     18.22s WALL (       1 calls)
     v_of_rho     :      0.00s CPU      0.01s WALL (       1 calls)
     v_h          :      0.00s CPU      0.00s WALL (       1 calls)
     v_xc         :      0.00s CPU      0.01s WALL (       1 calls)
     newd         :      0.02s CPU      0.02s WALL (       1 calls)

     Called by c_bands:
     init_us_2    :      0.01s CPU      0.01s WALL (      48 calls)
     init_us_2:cp :      0.01s CPU      0.01s WALL (      48 calls)
     cegterg      :     17.53s CPU     17.73s WALL (     209 calls)

     Called by sum_band:

     Called by *egterg:
     cdiaghg      :      0.46s CPU      0.47s WALL (    3807 calls)
     cegterg:over :      0.36s CPU      0.37s WALL (    3759 calls)
     cegterg:upda :      0.25s CPU      0.26s WALL (    3759 calls)
     cegterg:last :      0.44s CPU      0.44s WALL (    2368 calls)
     h_psi        :     15.80s CPU     16.00s WALL (    4016 calls)
     s_psi        :      0.18s CPU      0.18s WALL (    4016 calls)
     g_psi        :      0.18s CPU      0.19s WALL (    3759 calls)

     Called by h_psi:
     h_psi:calbec :      0.23s CPU      0.23s WALL (    4016 calls)
     vloc_psi     :     15.31s CPU     15.50s WALL (    4016 calls)
     add_vuspsi   :      0.19s CPU      0.20s WALL (    4016 calls)

     General routines
     calbec       :      0.22s CPU      0.23s WALL (    4016 calls)
     fft          :      0.01s CPU      0.03s WALL (       6 calls)
     ffts         :      0.00s CPU      0.00s WALL (       1 calls)
     fftw         :     12.96s CPU     13.12s WALL (   38518 calls)
     interpolate  :      0.00s CPU      0.00s WALL (       1 calls)
     davcio       :      0.01s CPU      0.01s WALL (      96 calls)

     Parallel routines

     PWSCF        :     18.33s CPU     18.64s WALL


   This run was terminated on:  19:39:40   1Jul2023            

=------------------------------------------------------------------------------=
   JOB DONE.
=------------------------------------------------------------------------------=
