
     Program PWSCF v.7.2 starts on  4Jul2023 at 12:45:15 

     This program is part of the open-source Quantum ESPRESSO suite
     for quantum simulation of materials; please cite
         "P. Giannozzi et al., J. Phys.:Condens. Matter 21 395502 (2009);
         "P. Giannozzi et al., J. Phys.:Condens. Matter 29 465901 (2017);
         "P. Giannozzi et al., J. Chem. Phys. 152 154105 (2020);
          URL http://www.quantum-espresso.org", 
     in publications or presentations arising from this work. More details at
     http://www.quantum-espresso.org/quote

     Parallel version (MPI), running on     1 processors

     MPI processes distributed on     1 nodes
     1079 MiB available memory on the printing compute node when the environment starts

     Waiting for input...
     Reading input from standard input

     Current dimensions of program PWSCF are:
     Max number of different atomic species (ntypx) = 10
     Max number of k-points (npk) =  40000
     Max angular momentum in pseudopotentials (lmaxx) =  4

     Atomic positions and unit cell read from directory:
     ./tmp/graphene/graphene.save/


     Subspace diagonalization in iterative solution of the eigenvalue problem:
     a serial algorithm will be used


     G-vector sticks info
     --------------------
     sticks:   dense  smooth     PW     G-vecs:    dense   smooth      PW
     Sum         583     241     85                34703     8875    1651

     Using Slab Decomposition



     bravais-lattice index     =            4
     lattice parameter (alat)  =       4.6300  a.u.
     unit-cell volume          =     257.8665 (a.u.)^3
     number of atoms/cell      =            2
     number of atomic types    =            1
     number of electrons       =         8.00
     number of Kohn-Sham states=            8
     kinetic-energy cutoff     =      40.0000  Ry
     charge density cutoff     =     400.0000  Ry
     Exchange-correlation= LDA
                           (   1   1   0   0   0   0   0)

     celldm(1)=   4.654000  celldm(2)=   0.000000  celldm(3)=   3.000000
     celldm(4)=   0.000000  celldm(5)=   0.000000  celldm(6)=   0.000000

     crystal axes: (cart. coord. in units of alat)
               a(1) = (   1.000000   0.000000   0.000000 )  
               a(2) = (  -0.500000   0.866025   0.000000 )  
               a(3) = (   0.000000   0.000000   3.000000 )  

     reciprocal axes: (cart. coord. in units 2 pi/alat)
               b(1) = (  1.000000  0.577350 -0.000000 )  
               b(2) = (  0.000000  1.154701  0.000000 )  
               b(3) = (  0.000000 -0.000000  0.333333 )  


     PseudoPot. # 1 for C  read from file:
     ./C.pz-n-rrkjus_psl.0.1.UPF
     MD5 check sum: a3cecbabebb5b3a1aff122f23eb09bb0
     Pseudo is Ultrasoft + core correction, Zval =  4.0
     Generated using "atomic" code by A. Dal Corso  v.5.0.2 svn rev. 9415
     Using radial grid of 1073 points,  4 beta functions with: 
                l(1) =   0
                l(2) =   0
                l(3) =   1
                l(4) =   1
     Q(r) pseudized with 0 coefficients 


     atomic species   valence    mass     pseudopotential
        C              4.00    12.01070     C ( 1.00)

     24 Sym. Ops., with inversion, found (12 have fractional translation)


                                    s                        frac. trans.

      isym =  1     identity                                     

 cryst.   s( 1) = (     1          0          0      )
                  (     0          1          0      )
                  (     0          0          1      )

 cart.    s( 1) = (  1.0000000  0.0000000  0.0000000 )
                  (  0.0000000  1.0000000  0.0000000 )
                  (  0.0000000  0.0000000  1.0000000 )


      isym =  2     180 deg rotation - cart. axis [0,0,1]        

 cryst.   s( 2) = (    -1          0          0      )    f =( -0.3333334 )
                  (     0         -1          0      )       (  0.3333333 )
                  (     0          0          1      )       (  0.0000000 )

 cart.    s( 2) = ( -1.0000000  0.0000000  0.0000000 )    f =( -0.5000000 )
                  (  0.0000000 -1.0000000  0.0000000 )       (  0.2886751 )
                  (  0.0000000  0.0000000  1.0000000 )       (  0.0000000 )


      isym =  3     180 deg rotation - cart. axis [0,1,0]        

 cryst.   s( 3) = (    -1          0          0      )
                  (     1          1          0      )
                  (     0          0         -1      )

 cart.    s( 3) = ( -1.0000000  0.0000000  0.0000000 )
                  (  0.0000000  1.0000000  0.0000000 )
                  (  0.0000000  0.0000000 -1.0000000 )


      isym =  4     180 deg rotation - cart. axis [1,0,0]        

 cryst.   s( 4) = (     1          0          0      )    f =( -0.3333334 )
                  (    -1         -1          0      )       (  0.3333333 )
                  (     0          0         -1      )       (  0.0000000 )

 cart.    s( 4) = (  1.0000000  0.0000000  0.0000000 )    f =( -0.5000000 )
                  (  0.0000000 -1.0000000  0.0000000 )       (  0.2886751 )
                  (  0.0000000  0.0000000 -1.0000000 )       (  0.0000000 )


      isym =  5      60 deg rotation - cryst. axis [0,0,1]       

 cryst.   s( 5) = (     1          1          0      )    f =( -0.3333334 )
                  (    -1          0          0      )       (  0.3333334 )
                  (     0          0          1      )       (  0.0000000 )

 cart.    s( 5) = (  0.5000000 -0.8660254  0.0000000 )    f =( -0.5000000 )
                  (  0.8660254  0.5000000  0.0000000 )       (  0.2886751 )
                  (  0.0000000  0.0000000  1.0000000 )       (  0.0000000 )


      isym =  6      60 deg rotation - cryst. axis [0,0,-1]      

 cryst.   s( 6) = (     0         -1          0      )    f =( -0.3333333 )
                  (     1          1          0      )       (  0.3333334 )
                  (     0          0          1      )       (  0.0000000 )

 cart.    s( 6) = (  0.5000000  0.8660254  0.0000000 )    f =( -0.5000000 )
                  ( -0.8660254  0.5000000  0.0000000 )       (  0.2886751 )
                  (  0.0000000  0.0000000  1.0000000 )       (  0.0000000 )


      isym =  7     120 deg rotation - cryst. axis [0,0,1]       

 cryst.   s( 7) = (     0          1          0      )
                  (    -1         -1          0      )
                  (     0          0          1      )

 cart.    s( 7) = ( -0.5000000 -0.8660254  0.0000000 )
                  (  0.8660254 -0.5000000  0.0000000 )
                  (  0.0000000  0.0000000  1.0000000 )


      isym =  8     120 deg rotation - cryst. axis [0,0,-1]      

 cryst.   s( 8) = (    -1         -1          0      )
                  (     1          0          0      )
                  (     0          0          1      )

 cart.    s( 8) = ( -0.5000000  0.8660254  0.0000000 )
                  ( -0.8660254 -0.5000000  0.0000000 )
                  (  0.0000000  0.0000000  1.0000000 )


      isym =  9     180 deg rotation - cryst. axis [1,-1,0]      

 cryst.   s( 9) = (     0         -1          0      )
                  (    -1          0          0      )
                  (     0          0         -1      )

 cart.    s( 9) = (  0.5000000 -0.8660254  0.0000000 )
                  ( -0.8660254 -0.5000000  0.0000000 )
                  (  0.0000000  0.0000000 -1.0000000 )


      isym = 10     180 deg rotation - cryst. axis [2,1,0]       

 cryst.   s(10) = (     1          1          0      )
                  (     0         -1          0      )
                  (     0          0         -1      )

 cart.    s(10) = (  0.5000000  0.8660254  0.0000000 )
                  (  0.8660254 -0.5000000  0.0000000 )
                  (  0.0000000  0.0000000 -1.0000000 )


      isym = 11     180 deg rotation - cryst. axis [0,1,0]       

 cryst.   s(11) = (    -1         -1          0      )    f =( -0.3333334 )
                  (     0          1          0      )       (  0.3333334 )
                  (     0          0         -1      )       (  0.0000000 )

 cart.    s(11) = ( -0.5000000 -0.8660254  0.0000000 )    f =( -0.5000000 )
                  ( -0.8660254  0.5000000  0.0000000 )       (  0.2886751 )
                  (  0.0000000  0.0000000 -1.0000000 )       (  0.0000000 )


      isym = 12     180 deg rotation - cryst. axis [1,1,0]       

 cryst.   s(12) = (     0          1          0      )    f =( -0.3333333 )
                  (     1          0          0      )       (  0.3333334 )
                  (     0          0         -1      )       (  0.0000000 )

 cart.    s(12) = ( -0.5000000  0.8660254  0.0000000 )    f =( -0.5000000 )
                  (  0.8660254  0.5000000  0.0000000 )       (  0.2886751 )
                  (  0.0000000  0.0000000 -1.0000000 )       (  0.0000000 )


      isym = 13     inversion                                    

 cryst.   s(13) = (    -1          0          0      )    f =( -0.3333334 )
                  (     0         -1          0      )       (  0.3333333 )
                  (     0          0         -1      )       (  0.0000000 )

 cart.    s(13) = ( -1.0000000  0.0000000  0.0000000 )    f =( -0.5000000 )
                  (  0.0000000 -1.0000000  0.0000000 )       (  0.2886751 )
                  (  0.0000000  0.0000000 -1.0000000 )       (  0.0000000 )


      isym = 14     inv. 180 deg rotation - cart. axis [0,0,1]   

 cryst.   s(14) = (     1          0          0      )
                  (     0          1          0      )
                  (     0          0         -1      )

 cart.    s(14) = (  1.0000000  0.0000000  0.0000000 )
                  (  0.0000000  1.0000000  0.0000000 )
                  (  0.0000000  0.0000000 -1.0000000 )


      isym = 15     inv. 180 deg rotation - cart. axis [0,1,0]   

 cryst.   s(15) = (     1          0          0      )    f =( -0.3333334 )
                  (    -1         -1          0      )       (  0.3333333 )
                  (     0          0          1      )       (  0.0000000 )

 cart.    s(15) = (  1.0000000  0.0000000  0.0000000 )    f =( -0.5000000 )
                  (  0.0000000 -1.0000000  0.0000000 )       (  0.2886751 )
                  (  0.0000000  0.0000000  1.0000000 )       (  0.0000000 )


      isym = 16     inv. 180 deg rotation - cart. axis [1,0,0]   

 cryst.   s(16) = (    -1          0          0      )
                  (     1          1          0      )
                  (     0          0          1      )

 cart.    s(16) = ( -1.0000000  0.0000000  0.0000000 )
                  (  0.0000000  1.0000000  0.0000000 )
                  (  0.0000000  0.0000000  1.0000000 )


      isym = 17     inv.  60 deg rotation - cryst. axis [0,0,1]  

 cryst.   s(17) = (    -1         -1          0      )
                  (     1          0          0      )
                  (     0          0         -1      )

 cart.    s(17) = ( -0.5000000  0.8660254  0.0000000 )
                  ( -0.8660254 -0.5000000  0.0000000 )
                  (  0.0000000  0.0000000 -1.0000000 )


      isym = 18     inv.  60 deg rotation - cryst. axis [0,0,-1] 

 cryst.   s(18) = (     0          1          0      )
                  (    -1         -1          0      )
                  (     0          0         -1      )

 cart.    s(18) = ( -0.5000000 -0.8660254  0.0000000 )
                  (  0.8660254 -0.5000000  0.0000000 )
                  (  0.0000000  0.0000000 -1.0000000 )


      isym = 19     inv. 120 deg rotation - cryst. axis [0,0,1]  

 cryst.   s(19) = (     0         -1          0      )    f =( -0.3333333 )
                  (     1          1          0      )       (  0.3333334 )
                  (     0          0         -1      )       (  0.0000000 )

 cart.    s(19) = (  0.5000000  0.8660254  0.0000000 )    f =( -0.5000000 )
                  ( -0.8660254  0.5000000  0.0000000 )       (  0.2886751 )
                  (  0.0000000  0.0000000 -1.0000000 )       (  0.0000000 )


      isym = 20     inv. 120 deg rotation - cryst. axis [0,0,-1] 

 cryst.   s(20) = (     1          1          0      )    f =( -0.3333334 )
                  (    -1          0          0      )       (  0.3333334 )
                  (     0          0         -1      )       (  0.0000000 )

 cart.    s(20) = (  0.5000000 -0.8660254  0.0000000 )    f =( -0.5000000 )
                  (  0.8660254  0.5000000  0.0000000 )       (  0.2886751 )
                  (  0.0000000  0.0000000 -1.0000000 )       (  0.0000000 )


      isym = 21     inv. 180 deg rotation - cryst. axis [1,-1,0] 

 cryst.   s(21) = (     0          1          0      )    f =( -0.3333333 )
                  (     1          0          0      )       (  0.3333334 )
                  (     0          0          1      )       (  0.0000000 )

 cart.    s(21) = ( -0.5000000  0.8660254  0.0000000 )    f =( -0.5000000 )
                  (  0.8660254  0.5000000  0.0000000 )       (  0.2886751 )
                  (  0.0000000  0.0000000  1.0000000 )       (  0.0000000 )


      isym = 22     inv. 180 deg rotation - cryst. axis [2,1,0]  

 cryst.   s(22) = (    -1         -1          0      )    f =( -0.3333334 )
                  (     0          1          0      )       (  0.3333334 )
                  (     0          0          1      )       (  0.0000000 )

 cart.    s(22) = ( -0.5000000 -0.8660254  0.0000000 )    f =( -0.5000000 )
                  ( -0.8660254  0.5000000  0.0000000 )       (  0.2886751 )
                  (  0.0000000  0.0000000  1.0000000 )       (  0.0000000 )


      isym = 23     inv. 180 deg rotation - cryst. axis [0,1,0]  

 cryst.   s(23) = (     1          1          0      )
                  (     0         -1          0      )
                  (     0          0          1      )

 cart.    s(23) = (  0.5000000  0.8660254  0.0000000 )
                  (  0.8660254 -0.5000000  0.0000000 )
                  (  0.0000000  0.0000000  1.0000000 )


      isym = 24     inv. 180 deg rotation - cryst. axis [1,1,0]  

 cryst.   s(24) = (     0         -1          0      )
                  (    -1          0          0      )
                  (     0          0          1      )

 cart.    s(24) = (  0.5000000 -0.8660254  0.0000000 )
                  ( -0.8660254 -0.5000000  0.0000000 )
                  (  0.0000000  0.0000000  1.0000000 )


     point group D_6h(6/mmm)
     there are 12 classes
     the character table:

       E     2C6   2C3   C2    3C2'  3C2'' i     2S3   2S6   s_h   3s_d  3s_v 
A_1g   1.00  1.00  1.00  1.00  1.00  1.00  1.00  1.00  1.00  1.00  1.00  1.00
A_2g   1.00  1.00  1.00  1.00 -1.00 -1.00  1.00  1.00  1.00  1.00 -1.00 -1.00
B_1g   1.00 -1.00  1.00 -1.00  1.00 -1.00  1.00 -1.00  1.00 -1.00  1.00 -1.00
B_2g   1.00 -1.00  1.00 -1.00 -1.00  1.00  1.00 -1.00  1.00 -1.00 -1.00  1.00
E_1g   2.00  1.00 -1.00 -2.00  0.00  0.00  2.00  1.00 -1.00 -2.00  0.00  0.00
E_2g   2.00 -1.00 -1.00  2.00  0.00  0.00  2.00 -1.00 -1.00  2.00  0.00  0.00
A_1u   1.00  1.00  1.00  1.00  1.00  1.00 -1.00 -1.00 -1.00 -1.00 -1.00 -1.00
A_2u   1.00  1.00  1.00  1.00 -1.00 -1.00 -1.00 -1.00 -1.00 -1.00  1.00  1.00
B_1u   1.00 -1.00  1.00 -1.00  1.00 -1.00 -1.00  1.00 -1.00  1.00 -1.00  1.00
B_2u   1.00 -1.00  1.00 -1.00 -1.00  1.00 -1.00  1.00 -1.00  1.00  1.00 -1.00
E_1u   2.00  1.00 -1.00 -2.00  0.00  0.00 -2.00 -1.00  1.00  2.00  0.00  0.00
E_2u   2.00 -1.00 -1.00  2.00  0.00  0.00 -2.00  1.00  1.00 -2.00  0.00  0.00

     the symmetry operations in each class and the name of the first element:

     E        1
          identity                                               
     2C6      5    6
           60 deg rotation - cryst. axis [0,0,1]                 
     2C3      7    8
          120 deg rotation - cryst. axis [0,0,1]                 
     C2       2
          180 deg rotation - cart. axis [0,0,1]                  
     3C2'     4   12   11
          180 deg rotation - cart. axis [1,0,0]                  
     3C2''    3    9   10
          180 deg rotation - cart. axis [0,1,0]                  
     i       13
          inversion                                              
     2S3     17   18
          inv.  60 deg rotation - cryst. axis [0,0,1]            
     2S6     19   20
          inv. 120 deg rotation - cryst. axis [0,0,1]            
     s_h     14
          inv. 180 deg rotation - cart. axis [0,0,1]             
     3s_d    16   24   23
          inv. 180 deg rotation - cart. axis [1,0,0]             
     3s_v    15   21   22
          inv. 180 deg rotation - cart. axis [0,1,0]             

   Cartesian axes

     site n.     atom                  positions (alat units)
         1           C   tau(   1) = (   0.0000000   0.0000000   0.0000000  )
         2           C   tau(   2) = (   0.0000000   0.5773503   0.0000000  )

   Crystallographic axes

     site n.     atom                  positions (cryst. coord.)
         1           C   tau(   1) = (  0.0000000  0.0000000  0.0000000  )
         2           C   tau(   2) = (  0.3333334  0.6666667  0.0000000  )

     number of k points=    48
                       cart. coord. in units 2pi/alat
        k(    1) = (   0.0000000   0.0000000   0.0000000), wk =   0.0416667
        k(    2) = (   0.0166667   0.0288675   0.0000000), wk =   0.0416667
        k(    3) = (   0.0333333   0.0577350   0.0000000), wk =   0.0416667
        k(    4) = (   0.0500000   0.0866025   0.0000000), wk =   0.0416667
        k(    5) = (   0.0666667   0.1154701   0.0000000), wk =   0.0416667
        k(    6) = (   0.0833333   0.1443376   0.0000000), wk =   0.0416667
        k(    7) = (   0.1000000   0.1732051   0.0000000), wk =   0.0416667
        k(    8) = (   0.1166667   0.2020726   0.0000000), wk =   0.0416667
        k(    9) = (   0.1333333   0.2309401   0.0000000), wk =   0.0416667
        k(   10) = (   0.1500000   0.2598076   0.0000000), wk =   0.0416667
        k(   11) = (   0.1666667   0.2886751   0.0000000), wk =   0.0416667
        k(   12) = (   0.1833333   0.3175426   0.0000000), wk =   0.0416667
        k(   13) = (   0.2000000   0.3464102   0.0000000), wk =   0.0416667
        k(   14) = (   0.2166667   0.3752777   0.0000000), wk =   0.0416667
        k(   15) = (   0.2333333   0.4041452   0.0000000), wk =   0.0416667
        k(   16) = (   0.2500000   0.4330127   0.0000000), wk =   0.0416667
        k(   17) = (   0.2666667   0.4618802   0.0000000), wk =   0.0416667
        k(   18) = (   0.2833333   0.4907477   0.0000000), wk =   0.0416667
        k(   19) = (   0.3000000   0.5196152   0.0000000), wk =   0.0416667
        k(   20) = (   0.3166667   0.5484828   0.0000000), wk =   0.0416667
        k(   21) = (   0.3333333   0.5773503   0.0000000), wk =   0.0416667
        k(   22) = (   0.3000000   0.5773503   0.0000000), wk =   0.0416667
        k(   23) = (   0.2666667   0.5773503   0.0000000), wk =   0.0416667
        k(   24) = (   0.2333333   0.5773503   0.0000000), wk =   0.0416667
        k(   25) = (   0.2000000   0.5773503   0.0000000), wk =   0.0416667
        k(   26) = (   0.1666667   0.5773503   0.0000000), wk =   0.0416667
        k(   27) = (   0.1333333   0.5773503   0.0000000), wk =   0.0416667
        k(   28) = (   0.1000000   0.5773503   0.0000000), wk =   0.0416667
        k(   29) = (   0.0666667   0.5773503   0.0000000), wk =   0.0416667
        k(   30) = (   0.0333333   0.5773503   0.0000000), wk =   0.0416667
        k(   31) = (   0.0000000   0.5773503   0.0000000), wk =   0.0416667
        k(   32) = (   0.0000000   0.5433885   0.0000000), wk =   0.0416667
        k(   33) = (   0.0000000   0.5094267   0.0000000), wk =   0.0416667
        k(   34) = (   0.0000000   0.4754649   0.0000000), wk =   0.0416667
        k(   35) = (   0.0000000   0.4415031   0.0000000), wk =   0.0416667
        k(   36) = (   0.0000000   0.4075414   0.0000000), wk =   0.0416667
        k(   37) = (   0.0000000   0.3735796   0.0000000), wk =   0.0416667
        k(   38) = (   0.0000000   0.3396178   0.0000000), wk =   0.0416667
        k(   39) = (   0.0000000   0.3056560   0.0000000), wk =   0.0416667
        k(   40) = (   0.0000000   0.2716942   0.0000000), wk =   0.0416667
        k(   41) = (   0.0000000   0.2377325   0.0000000), wk =   0.0416667
        k(   42) = (   0.0000000   0.2037707   0.0000000), wk =   0.0416667
        k(   43) = (   0.0000000   0.1698089   0.0000000), wk =   0.0416667
        k(   44) = (   0.0000000   0.1358471   0.0000000), wk =   0.0416667
        k(   45) = (   0.0000000   0.1018853   0.0000000), wk =   0.0416667
        k(   46) = (   0.0000000   0.0679236   0.0000000), wk =   0.0416667
        k(   47) = (   0.0000000   0.0339618   0.0000000), wk =   0.0416667
        k(   48) = (   0.0000000   0.0000000   0.0000000), wk =   0.0416667

                       cryst. coord.
        k(    1) = (   0.0000000   0.0000000   0.0000000), wk =   0.0416667
        k(    2) = (   0.0166667   0.0166667   0.0000000), wk =   0.0416667
        k(    3) = (   0.0333333   0.0333333   0.0000000), wk =   0.0416667
        k(    4) = (   0.0500000   0.0500000   0.0000000), wk =   0.0416667
        k(    5) = (   0.0666667   0.0666667   0.0000000), wk =   0.0416667
        k(    6) = (   0.0833333   0.0833333   0.0000000), wk =   0.0416667
        k(    7) = (   0.1000000   0.1000000   0.0000000), wk =   0.0416667
        k(    8) = (   0.1166667   0.1166667   0.0000000), wk =   0.0416667
        k(    9) = (   0.1333333   0.1333333   0.0000000), wk =   0.0416667
        k(   10) = (   0.1500000   0.1500000   0.0000000), wk =   0.0416667
        k(   11) = (   0.1666667   0.1666667   0.0000000), wk =   0.0416667
        k(   12) = (   0.1833333   0.1833333   0.0000000), wk =   0.0416667
        k(   13) = (   0.2000000   0.2000000   0.0000000), wk =   0.0416667
        k(   14) = (   0.2166667   0.2166667   0.0000000), wk =   0.0416667
        k(   15) = (   0.2333333   0.2333333   0.0000000), wk =   0.0416667
        k(   16) = (   0.2500000   0.2500000   0.0000000), wk =   0.0416667
        k(   17) = (   0.2666667   0.2666667   0.0000000), wk =   0.0416667
        k(   18) = (   0.2833333   0.2833333   0.0000000), wk =   0.0416667
        k(   19) = (   0.3000000   0.3000000   0.0000000), wk =   0.0416667
        k(   20) = (   0.3166667   0.3166667   0.0000000), wk =   0.0416667
        k(   21) = (   0.3333333   0.3333333   0.0000000), wk =   0.0416667
        k(   22) = (   0.3000000   0.3500000   0.0000000), wk =   0.0416667
        k(   23) = (   0.2666667   0.3666667   0.0000000), wk =   0.0416667
        k(   24) = (   0.2333333   0.3833333   0.0000000), wk =   0.0416667
        k(   25) = (   0.2000000   0.4000000   0.0000000), wk =   0.0416667
        k(   26) = (   0.1666667   0.4166667   0.0000000), wk =   0.0416667
        k(   27) = (   0.1333333   0.4333333   0.0000000), wk =   0.0416667
        k(   28) = (   0.1000000   0.4500000   0.0000000), wk =   0.0416667
        k(   29) = (   0.0666667   0.4666667   0.0000000), wk =   0.0416667
        k(   30) = (   0.0333333   0.4833333   0.0000000), wk =   0.0416667
        k(   31) = (   0.0000000   0.5000000   0.0000000), wk =   0.0416667
        k(   32) = (   0.0000000   0.4705882   0.0000000), wk =   0.0416667
        k(   33) = (   0.0000000   0.4411765   0.0000000), wk =   0.0416667
        k(   34) = (   0.0000000   0.4117647   0.0000000), wk =   0.0416667
        k(   35) = (   0.0000000   0.3823529   0.0000000), wk =   0.0416667
        k(   36) = (   0.0000000   0.3529412   0.0000000), wk =   0.0416667
        k(   37) = (   0.0000000   0.3235294   0.0000000), wk =   0.0416667
        k(   38) = (   0.0000000   0.2941176   0.0000000), wk =   0.0416667
        k(   39) = (   0.0000000   0.2647059   0.0000000), wk =   0.0416667
        k(   40) = (   0.0000000   0.2352941   0.0000000), wk =   0.0416667
        k(   41) = (   0.0000000   0.2058824   0.0000000), wk =   0.0416667
        k(   42) = (   0.0000000   0.1764706   0.0000000), wk =   0.0416667
        k(   43) = (   0.0000000   0.1470588   0.0000000), wk =   0.0416667
        k(   44) = (   0.0000000   0.1176471   0.0000000), wk =   0.0416667
        k(   45) = (   0.0000000   0.0882353   0.0000000), wk =   0.0416667
        k(   46) = (   0.0000000   0.0588235   0.0000000), wk =   0.0416667
        k(   47) = (   0.0000000   0.0294118   0.0000000), wk =   0.0416667
        k(   48) = (   0.0000000   0.0000000   0.0000000), wk =   0.0416667

     Dense  grid:    34703 G-vectors     FFT dimensions: (  30,  30,  90)

     Smooth grid:     8875 G-vectors     FFT dimensions: (  24,  24,  60)

     Dynamical RAM for                 wfc:       0.13 MB

     Dynamical RAM for     wfc (w. buffer):       0.13 MB

     Dynamical RAM for           str. fact:       0.53 MB

     Dynamical RAM for           local pot:       0.00 MB

     Dynamical RAM for          nlocal pot:       0.27 MB

     Dynamical RAM for                qrad:       0.46 MB

     Dynamical RAM for          rho,v,vnew:       3.44 MB

     Dynamical RAM for           G-vectors:       2.05 MB

     Dynamical RAM for          h,s,v(r/c):       0.01 MB

     Dynamical RAM for          <psi|beta>:       0.00 MB

     Dynamical RAM for                 psi:       0.27 MB

     Dynamical RAM for                hpsi:       0.27 MB

     Dynamical RAM for                spsi:       0.27 MB

     Dynamical RAM for      wfcinit/wfcrot:       0.27 MB

     Dynamical RAM for           addusdens:      23.83 MB

     Estimated static dynamical RAM per process >      11.04 MB

     Estimated max dynamical RAM per process >      34.87 MB

     Check: negative core charge=   -0.000002

     The potential is recalculated from file :
     ./tmp/graphene/graphene.save/charge-density


     negative rho (up, down):  1.175E-06 0.000E+00
     Starting wfcs are    8 randomized atomic wfcs

     Band Structure Calculation
     Davidson diagonalization with overlap

     Computing kpt #:     1  of    48
     total cpu time spent up to now is        0.7 secs

     Computing kpt #:     2  of    48
     total cpu time spent up to now is        1.1 secs

     Computing kpt #:     3  of    48
     total cpu time spent up to now is        1.5 secs

     Computing kpt #:     4  of    48
     c_bands:  1 eigenvalues not converged
     total cpu time spent up to now is        2.0 secs

     Computing kpt #:     5  of    48
     total cpu time spent up to now is        2.4 secs

     Computing kpt #:     6  of    48
     total cpu time spent up to now is        2.8 secs

     Computing kpt #:     7  of    48
     total cpu time spent up to now is        3.2 secs

     Computing kpt #:     8  of    48
     total cpu time spent up to now is        3.6 secs

     Computing kpt #:     9  of    48
     total cpu time spent up to now is        3.9 secs

     Computing kpt #:    10  of    48
     total cpu time spent up to now is        4.2 secs

     Computing kpt #:    11  of    48
     total cpu time spent up to now is        4.6 secs

     Computing kpt #:    12  of    48
     total cpu time spent up to now is        5.0 secs

     Computing kpt #:    13  of    48
     total cpu time spent up to now is        5.4 secs

     Computing kpt #:    14  of    48
     total cpu time spent up to now is        5.8 secs

     Computing kpt #:    15  of    48
     total cpu time spent up to now is        6.2 secs

     Computing kpt #:    16  of    48
     c_bands:  1 eigenvalues not converged
     total cpu time spent up to now is        6.7 secs

     Computing kpt #:    17  of    48
     c_bands:  1 eigenvalues not converged
     total cpu time spent up to now is        7.1 secs

     Computing kpt #:    18  of    48
     c_bands:  1 eigenvalues not converged
     total cpu time spent up to now is        7.6 secs

     Computing kpt #:    19  of    48
     total cpu time spent up to now is        8.1 secs

     Computing kpt #:    20  of    48
     total cpu time spent up to now is        8.5 secs

     Computing kpt #:    21  of    48
     total cpu time spent up to now is        8.9 secs

     Computing kpt #:    22  of    48
     total cpu time spent up to now is        9.3 secs

     Computing kpt #:    23  of    48
     total cpu time spent up to now is        9.7 secs

     Computing kpt #:    24  of    48
     total cpu time spent up to now is       10.1 secs

     Computing kpt #:    25  of    48
     total cpu time spent up to now is       10.5 secs

     Computing kpt #:    26  of    48
     total cpu time spent up to now is       10.9 secs

     Computing kpt #:    27  of    48
     total cpu time spent up to now is       11.3 secs

     Computing kpt #:    28  of    48
     total cpu time spent up to now is       11.6 secs

     Computing kpt #:    29  of    48
     total cpu time spent up to now is       11.9 secs

     Computing kpt #:    30  of    48
     total cpu time spent up to now is       12.1 secs

     Computing kpt #:    31  of    48
     total cpu time spent up to now is       12.4 secs

     Computing kpt #:    32  of    48
     total cpu time spent up to now is       12.7 secs

     Computing kpt #:    33  of    48
     total cpu time spent up to now is       13.1 secs

     Computing kpt #:    34  of    48
     total cpu time spent up to now is       13.4 secs

     Computing kpt #:    35  of    48
     total cpu time spent up to now is       13.7 secs

     Computing kpt #:    36  of    48
     total cpu time spent up to now is       14.0 secs

     Computing kpt #:    37  of    48
     total cpu time spent up to now is       14.3 secs

     Computing kpt #:    38  of    48
     total cpu time spent up to now is       14.6 secs

     Computing kpt #:    39  of    48
     total cpu time spent up to now is       14.9 secs

     Computing kpt #:    40  of    48
     total cpu time spent up to now is       15.2 secs

     Computing kpt #:    41  of    48
     total cpu time spent up to now is       15.5 secs

     Computing kpt #:    42  of    48
     total cpu time spent up to now is       15.9 secs

     Computing kpt #:    43  of    48
     total cpu time spent up to now is       16.4 secs

     Computing kpt #:    44  of    48
     total cpu time spent up to now is       16.8 secs

     Computing kpt #:    45  of    48
     total cpu time spent up to now is       17.2 secs

     Computing kpt #:    46  of    48
     total cpu time spent up to now is       17.6 secs

     Computing kpt #:    47  of    48
     total cpu time spent up to now is       17.9 secs

     Computing kpt #:    48  of    48
     total cpu time spent up to now is       18.3 secs

     ethr =  1.25E-10,  avg # of iterations = 79.8

     total cpu time spent up to now is       18.3 secs

     End of band structure calculation

          k = 0.0000 0.0000 0.0000 (  1119 PWs)   bands (ev):

   -18.7346  -7.0498  -2.3087  -2.3087   3.6995   7.0559   9.1115   9.1115

          k = 0.0167 0.0289 0.0000 (  1123 PWs)   bands (ev):

   -18.7148  -7.0258  -2.3888  -2.3531   3.7264   7.0817   9.1142   9.1981

          k = 0.0333 0.0577 0.0000 (  1107 PWs)   bands (ev):

   -18.6555  -6.9540  -2.6198  -2.4845   3.8073   7.1590   9.1341   9.4463

          k = 0.0500 0.0866 0.0000 (  1103 PWs)   bands (ev):

   -18.5567  -6.8344  -2.9791  -2.6986   3.9421   7.2875   9.1839   9.6315

          k = 0.0667 0.1155 0.0000 (  1099 PWs)   bands (ev):

   -18.4186  -6.6676  -3.4372  -2.9880   4.1309   7.4669   9.2731   9.8300

          k = 0.0833 0.1443 0.0000 (  1103 PWs)   bands (ev):

   -18.2413  -6.4540  -3.9653  -3.3436   4.3737   7.6964   9.4058  10.0744

          k = 0.1000 0.1732 0.0000 (  1109 PWs)   bands (ev):

   -18.0251  -6.1943  -4.5389  -3.7550   4.6705   7.9751   9.5843  10.0560

          k = 0.1167 0.2021 0.0000 (  1103 PWs)   bands (ev):

   -17.7703  -5.8895  -5.1385  -4.2111   5.0211   8.3015   9.3811   9.8098

          k = 0.1333 0.2309 0.0000 (  1103 PWs)   bands (ev):

   -17.4774  -5.7494  -5.5408  -4.7012   5.4255   8.6660   8.6734  10.0816

          k = 0.1500 0.2598 0.0000 (  1105 PWs)   bands (ev):

   -17.1467  -6.3605  -5.2149  -5.1497   5.8834   7.9259   9.0873  10.3979

          k = 0.1667 0.2887 0.0000 (  1105 PWs)   bands (ev):

   -16.7790  -6.9636  -5.7429  -4.7183   6.3945   7.1744   9.5377  10.7560

          k = 0.1833 0.3175 0.0000 (  1107 PWs)   bands (ev):

   -16.3751  -7.5525  -6.2765  -4.2490   6.4226   6.9582  10.0154  11.1523

          k = 0.2000 0.3464 0.0000 (  1111 PWs)   bands (ev):

   -15.9360  -8.1226  -6.8083  -3.7449   5.6796   7.5739  10.5036  11.5815

          k = 0.2167 0.3753 0.0000 (  1103 PWs)   bands (ev):

   -15.4631  -8.6705  -7.3316  -3.2104   4.9531   8.2407  10.9714  12.0362

          k = 0.2333 0.4041 0.0000 (  1099 PWs)   bands (ev):

   -14.9584  -9.1936  -7.8402  -2.6505   4.2490   8.9568  11.3629  12.5051

          k = 0.2500 0.4330 0.0000 (  1111 PWs)   bands (ev):

   -14.4248  -9.6899  -8.3281  -2.0720   3.5723   9.7197  11.5979  12.9710

          k = 0.2667 0.4619 0.0000 (  1089 PWs)   bands (ev):

   -13.8663 -10.1577  -8.7890  -1.4834   2.9273  10.5247  11.6306  13.4070

          k = 0.2833 0.4907 0.0000 (  1087 PWs)   bands (ev):

   -13.2903 -10.5961  -9.2143  -0.8956   2.3172  11.3626  11.5150  13.7665

          k = 0.3000 0.5196 0.0000 (  1087 PWs)   bands (ev):

   -12.7110 -11.0040  -9.5899  -0.3218   1.7447  11.3526  12.2124  13.8429

          k = 0.3167 0.5485 0.0000 (  1075 PWs)   bands (ev):

   -12.1615 -11.3808  -9.8836   0.2226   1.2120  11.2220  13.0172  13.7513

          k = 0.3333 0.5774 0.0000 (  1050 PWs)   bands (ev):

   -11.7259 -11.7259 -10.0136   0.7210   0.7210  11.1716  13.5640  13.5640

          k = 0.3000 0.5774 0.0000 (  1070 PWs)   bands (ev):

   -12.0391 -11.5455  -9.8428   0.2730   1.1573  11.2284  13.3088  13.4696

          k = 0.2667 0.5774 0.0000 (  1082 PWs)   bands (ev):

   -12.3198 -11.6112  -9.3860  -0.1305   1.5200  11.4040  13.0230  13.1582

          k = 0.2333 0.5774 0.0000 (  1084 PWs)   bands (ev):

   -12.5679 -11.7770  -8.7978  -0.4886   1.8043  11.6929  12.6058  12.7359

          k = 0.2000 0.5774 0.0000 (  1088 PWs)   bands (ev):

   -12.7833 -11.9612  -8.1717  -0.8004   2.0137  11.7453  12.0718  12.4670

          k = 0.1667 0.5774 0.0000 (  1088 PWs)   bands (ev):

   -12.9656 -12.1334  -7.5541  -1.0652   2.1584  10.8689  12.2280  12.3558

          k = 0.1333 0.5774 0.0000 (  1080 PWs)   bands (ev):

   -13.1150 -12.2817  -6.9783  -1.2826   2.2519  10.0567  12.0263  12.1396

          k = 0.1000 0.5774 0.0000 (  1080 PWs)   bands (ev):

   -13.2311 -12.4003  -6.4766  -1.4521   2.3084   9.3586  11.8660  11.9691

          k = 0.0667 0.5774 0.0000 (  1092 PWs)   bands (ev):

   -13.3142 -12.4866  -6.0829  -1.5734   2.3398   8.8194  11.7500  11.8463

          k = 0.0333 0.5774 0.0000 (  1100 PWs)   bands (ev):

   -13.3641 -12.5388  -5.8299  -1.6463   2.3550   8.4770  11.6798  11.7721

          k = 0.0000 0.5774 0.0000 (  1092 PWs)   bands (ev):

   -13.3807 -12.5563  -5.7424  -1.6706   2.3595   8.3597  11.6563  11.7473

          k = 0.0000 0.5434 0.0000 (  1102 PWs)   bands (ev):

   -13.7223 -12.1845  -5.7218  -1.8059   2.5272   8.3685  10.8108  12.6327

          k = 0.0000 0.5094 0.0000 (  1104 PWs)   bands (ev):

   -14.2682 -11.5480  -5.6601  -2.1566   2.9749   8.3946   9.9687  12.7858

          k = 0.0000 0.4755 0.0000 (  1104 PWs)   bands (ev):

   -14.8157 -10.8508  -5.5580  -2.6243   3.6017   8.4317   9.1823  12.1204

          k = 0.0000 0.4415 0.0000 (  1098 PWs)   bands (ev):

   -15.3384 -10.1211  -5.4165  -3.1378   4.3330   8.3364   8.5963  11.4697

          k = 0.0000 0.4075 0.0000 (  1098 PWs)   bands (ev):

   -15.8292  -9.3687  -5.2374  -3.6578   5.1242   7.7074   8.6108  10.8496

          k = 0.0000 0.3736 0.0000 (  1106 PWs)   bands (ev):

   -16.2852  -8.6003  -5.0228  -4.1626   5.9466   7.0753   8.6936  10.2686

          k = 0.0000 0.3396 0.0000 (  1104 PWs)   bands (ev):

   -16.7047  -7.8227  -4.7758  -4.6400   6.4928   6.7785   8.7883   9.7330

          k = 0.0000 0.3057 0.0000 (  1100 PWs)   bands (ev):

   -17.0864  -7.0434  -5.0827  -4.5004   5.9639   7.5971   8.8862   9.2520

          k = 0.0000 0.2717 0.0000 (  1100 PWs)   bands (ev):

   -17.4296  -6.2716  -5.4860  -4.2021   5.4896   8.3265   8.8876   8.9794

          k = 0.0000 0.2377 0.0000 (  1106 PWs)   bands (ev):

   -17.7338  -5.8466  -5.5185  -3.8878   5.0705   8.3201   9.0600   9.2724

          k = 0.0000 0.2038 0.0000 (  1104 PWs)   bands (ev):

   -17.9982  -6.1623  -4.7982  -3.5666   4.7070   8.0048   9.1197   9.9646

          k = 0.0000 0.1698 0.0000 (  1104 PWs)   bands (ev):

   -18.2226  -6.4315  -4.1278  -3.2502   4.3992   7.7196   9.1526  10.0749

          k = 0.0000 0.1358 0.0000 (  1106 PWs)   bands (ev):

   -18.4066  -6.6531  -3.5278  -2.9529   4.1473   7.4822   9.1585   9.8327

          k = 0.0000 0.1019 0.0000 (  1104 PWs)   bands (ev):

   -18.5500  -6.8263  -3.0220  -2.6922   3.9513   7.2963   9.1446   9.6361

          k = 0.0000 0.0679 0.0000 (  1108 PWs)   bands (ev):

   -18.6525  -6.9503  -2.6355  -2.4867   3.8114   7.1629   9.1256   9.4692

          k = 0.0000 0.0340 0.0000 (  1123 PWs)   bands (ev):

   -18.7141  -7.0249  -2.3921  -2.3546   3.7275   7.0827   9.1139   9.2019

          k = 0.0000 0.0000 0.0000 (  1119 PWs)   bands (ev):

   -18.7346  -7.0498  -2.3087  -2.3087   3.6995   7.0559   9.1115   9.1115

     Writing all to output data dir ./tmp/graphene/graphene.save/

     init_run     :      0.29s CPU      0.30s WALL (       1 calls)
     electrons    :     17.74s CPU     17.93s WALL (       1 calls)

     Called by init_run:
     wfcinit      :      0.00s CPU      0.00s WALL (       1 calls)
     wfcinit:atom :      0.01s CPU      0.01s WALL (      48 calls)
     wfcinit:wfcr :      0.39s CPU      0.40s WALL (      48 calls)
     potinit      :      0.01s CPU      0.01s WALL (       1 calls)
     hinit0       :      0.23s CPU      0.23s WALL (       1 calls)

     Called by electrons:
     c_bands      :     17.74s CPU     17.93s WALL (       1 calls)
     v_of_rho     :      0.01s CPU      0.01s WALL (       1 calls)
     v_h          :      0.00s CPU      0.00s WALL (       1 calls)
     v_xc         :      0.01s CPU      0.01s WALL (       1 calls)
     newd         :      0.02s CPU      0.02s WALL (       1 calls)

     Called by c_bands:
     init_us_2    :      0.01s CPU      0.01s WALL (      48 calls)
     init_us_2:cp :      0.01s CPU      0.01s WALL (      48 calls)
     cegterg      :     17.28s CPU     17.45s WALL (     213 calls)

     Called by sum_band:

     Called by *egterg:
     cdiaghg      :      0.45s CPU      0.46s WALL (    3878 calls)
     cegterg:over :      0.34s CPU      0.35s WALL (    3830 calls)
     cegterg:upda :      0.25s CPU      0.25s WALL (    3830 calls)
     cegterg:last :      0.42s CPU      0.43s WALL (    2363 calls)
     h_psi        :     15.63s CPU     15.80s WALL (    4091 calls)
     s_psi        :      0.17s CPU      0.17s WALL (    4091 calls)
     g_psi        :      0.18s CPU      0.18s WALL (    3830 calls)

     Called by h_psi:
     h_psi:calbec :      0.22s CPU      0.22s WALL (    4091 calls)
     vloc_psi     :     15.17s CPU     15.33s WALL (    4091 calls)
     add_vuspsi   :      0.18s CPU      0.18s WALL (    4091 calls)

     General routines
     calbec       :      0.21s CPU      0.21s WALL (    4091 calls)
     fft          :      0.00s CPU      0.01s WALL (       6 calls)
     ffts         :      0.00s CPU      0.00s WALL (       1 calls)
     fftw         :     12.86s CPU     13.00s WALL (   38566 calls)
     interpolate  :      0.00s CPU      0.00s WALL (       1 calls)
     davcio       :      0.01s CPU      0.01s WALL (      96 calls)

     Parallel routines

     PWSCF        :     18.10s CPU     18.32s WALL


   This run was terminated on:  12:45:33   4Jul2023            

=------------------------------------------------------------------------------=
   JOB DONE.
=------------------------------------------------------------------------------=
