
     Program PWSCF v.7.2 starts on  4Jul2023 at 12:18: 3 

     This program is part of the open-source Quantum ESPRESSO suite
     for quantum simulation of materials; please cite
         "P. Giannozzi et al., J. Phys.:Condens. Matter 21 395502 (2009);
         "P. Giannozzi et al., J. Phys.:Condens. Matter 29 465901 (2017);
         "P. Giannozzi et al., J. Chem. Phys. 152 154105 (2020);
          URL http://www.quantum-espresso.org", 
     in publications or presentations arising from this work. More details at
     http://www.quantum-espresso.org/quote

     Parallel version (MPI), running on     1 processors

     MPI processes distributed on     1 nodes
     1038 MiB available memory on the printing compute node when the environment starts

     Waiting for input...
     Reading input from standard input

     Current dimensions of program PWSCF are:
     Max number of different atomic species (ntypx) = 10
     Max number of k-points (npk) =  40000
     Max angular momentum in pseudopotentials (lmaxx) =  4

     Subspace diagonalization in iterative solution of the eigenvalue problem:
     a serial algorithm will be used


     G-vector sticks info
     --------------------
     sticks:   dense  smooth     PW     G-vecs:    dense   smooth      PW
     Sum         625     253     85                37579     9597    1785

     Using Slab Decomposition



     bravais-lattice index     =            4
     lattice parameter (alat)  =       4.7500  a.u.
     unit-cell volume          =     278.4407 (a.u.)^3
     number of atoms/cell      =            2
     number of atomic types    =            1
     number of electrons       =         8.00
     number of Kohn-Sham states=            4
     kinetic-energy cutoff     =      40.0000  Ry
     charge density cutoff     =     400.0000  Ry
     scf convergence threshold =      1.0E-08
     mixing beta               =       0.7000
     number of iterations used =            8  plain     mixing
     Exchange-correlation= LDA
                           (   1   1   0   0   0   0   0)

     celldm(1)=   4.750000  celldm(2)=   0.000000  celldm(3)=   3.000000
     celldm(4)=   0.000000  celldm(5)=   0.000000  celldm(6)=   0.000000

     crystal axes: (cart. coord. in units of alat)
               a(1) = (   1.000000   0.000000   0.000000 )  
               a(2) = (  -0.500000   0.866025   0.000000 )  
               a(3) = (   0.000000   0.000000   3.000000 )  

     reciprocal axes: (cart. coord. in units 2 pi/alat)
               b(1) = (  1.000000  0.577350 -0.000000 )  
               b(2) = (  0.000000  1.154701  0.000000 )  
               b(3) = (  0.000000 -0.000000  0.333333 )  


     PseudoPot. # 1 for C  read from file:
     ./C.pz-n-rrkjus_psl.0.1.UPF
     MD5 check sum: a3cecbabebb5b3a1aff122f23eb09bb0
     Pseudo is Ultrasoft + core correction, Zval =  4.0
     Generated using "atomic" code by A. Dal Corso  v.5.0.2 svn rev. 9415
     Using radial grid of 1073 points,  4 beta functions with: 
                l(1) =   0
                l(2) =   0
                l(3) =   1
                l(4) =   1
     Q(r) pseudized with 0 coefficients 


     atomic species   valence    mass     pseudopotential
        C              4.00    12.01070     C ( 1.00)

     24 Sym. Ops., with inversion, found (12 have fractional translation)


                                    s                        frac. trans.

      isym =  1     identity                                     

 cryst.   s( 1) = (     1          0          0      )
                  (     0          1          0      )
                  (     0          0          1      )

 cart.    s( 1) = (  1.0000000  0.0000000  0.0000000 )
                  (  0.0000000  1.0000000  0.0000000 )
                  (  0.0000000  0.0000000  1.0000000 )


      isym =  2     180 deg rotation - cart. axis [0,0,1]        

 cryst.   s( 2) = (    -1          0          0      )    f =( -0.3333334 )
                  (     0         -1          0      )       (  0.3333333 )
                  (     0          0          1      )       (  0.0000000 )

 cart.    s( 2) = ( -1.0000000  0.0000000  0.0000000 )    f =( -0.5000000 )
                  (  0.0000000 -1.0000000  0.0000000 )       (  0.2886751 )
                  (  0.0000000  0.0000000  1.0000000 )       (  0.0000000 )


      isym =  3     180 deg rotation - cart. axis [0,1,0]        

 cryst.   s( 3) = (    -1          0          0      )
                  (     1          1          0      )
                  (     0          0         -1      )

 cart.    s( 3) = ( -1.0000000  0.0000000  0.0000000 )
                  (  0.0000000  1.0000000  0.0000000 )
                  (  0.0000000  0.0000000 -1.0000000 )


      isym =  4     180 deg rotation - cart. axis [1,0,0]        

 cryst.   s( 4) = (     1          0          0      )    f =( -0.3333334 )
                  (    -1         -1          0      )       (  0.3333333 )
                  (     0          0         -1      )       (  0.0000000 )

 cart.    s( 4) = (  1.0000000  0.0000000  0.0000000 )    f =( -0.5000000 )
                  (  0.0000000 -1.0000000  0.0000000 )       (  0.2886751 )
                  (  0.0000000  0.0000000 -1.0000000 )       (  0.0000000 )


      isym =  5      60 deg rotation - cryst. axis [0,0,1]       

 cryst.   s( 5) = (     1          1          0      )    f =( -0.3333334 )
                  (    -1          0          0      )       (  0.3333334 )
                  (     0          0          1      )       (  0.0000000 )

 cart.    s( 5) = (  0.5000000 -0.8660254  0.0000000 )    f =( -0.5000000 )
                  (  0.8660254  0.5000000  0.0000000 )       (  0.2886751 )
                  (  0.0000000  0.0000000  1.0000000 )       (  0.0000000 )


      isym =  6      60 deg rotation - cryst. axis [0,0,-1]      

 cryst.   s( 6) = (     0         -1          0      )    f =( -0.3333333 )
                  (     1          1          0      )       (  0.3333334 )
                  (     0          0          1      )       (  0.0000000 )

 cart.    s( 6) = (  0.5000000  0.8660254  0.0000000 )    f =( -0.5000000 )
                  ( -0.8660254  0.5000000  0.0000000 )       (  0.2886751 )
                  (  0.0000000  0.0000000  1.0000000 )       (  0.0000000 )


      isym =  7     120 deg rotation - cryst. axis [0,0,1]       

 cryst.   s( 7) = (     0          1          0      )
                  (    -1         -1          0      )
                  (     0          0          1      )

 cart.    s( 7) = ( -0.5000000 -0.8660254  0.0000000 )
                  (  0.8660254 -0.5000000  0.0000000 )
                  (  0.0000000  0.0000000  1.0000000 )


      isym =  8     120 deg rotation - cryst. axis [0,0,-1]      

 cryst.   s( 8) = (    -1         -1          0      )
                  (     1          0          0      )
                  (     0          0          1      )

 cart.    s( 8) = ( -0.5000000  0.8660254  0.0000000 )
                  ( -0.8660254 -0.5000000  0.0000000 )
                  (  0.0000000  0.0000000  1.0000000 )


      isym =  9     180 deg rotation - cryst. axis [1,-1,0]      

 cryst.   s( 9) = (     0         -1          0      )
                  (    -1          0          0      )
                  (     0          0         -1      )

 cart.    s( 9) = (  0.5000000 -0.8660254  0.0000000 )
                  ( -0.8660254 -0.5000000  0.0000000 )
                  (  0.0000000  0.0000000 -1.0000000 )


      isym = 10     180 deg rotation - cryst. axis [2,1,0]       

 cryst.   s(10) = (     1          1          0      )
                  (     0         -1          0      )
                  (     0          0         -1      )

 cart.    s(10) = (  0.5000000  0.8660254  0.0000000 )
                  (  0.8660254 -0.5000000  0.0000000 )
                  (  0.0000000  0.0000000 -1.0000000 )


      isym = 11     180 deg rotation - cryst. axis [0,1,0]       

 cryst.   s(11) = (    -1         -1          0      )    f =( -0.3333334 )
                  (     0          1          0      )       (  0.3333334 )
                  (     0          0         -1      )       (  0.0000000 )

 cart.    s(11) = ( -0.5000000 -0.8660254  0.0000000 )    f =( -0.5000000 )
                  ( -0.8660254  0.5000000  0.0000000 )       (  0.2886751 )
                  (  0.0000000  0.0000000 -1.0000000 )       (  0.0000000 )


      isym = 12     180 deg rotation - cryst. axis [1,1,0]       

 cryst.   s(12) = (     0          1          0      )    f =( -0.3333333 )
                  (     1          0          0      )       (  0.3333334 )
                  (     0          0         -1      )       (  0.0000000 )

 cart.    s(12) = ( -0.5000000  0.8660254  0.0000000 )    f =( -0.5000000 )
                  (  0.8660254  0.5000000  0.0000000 )       (  0.2886751 )
                  (  0.0000000  0.0000000 -1.0000000 )       (  0.0000000 )


      isym = 13     inversion                                    

 cryst.   s(13) = (    -1          0          0      )    f =( -0.3333334 )
                  (     0         -1          0      )       (  0.3333333 )
                  (     0          0         -1      )       (  0.0000000 )

 cart.    s(13) = ( -1.0000000  0.0000000  0.0000000 )    f =( -0.5000000 )
                  (  0.0000000 -1.0000000  0.0000000 )       (  0.2886751 )
                  (  0.0000000  0.0000000 -1.0000000 )       (  0.0000000 )


      isym = 14     inv. 180 deg rotation - cart. axis [0,0,1]   

 cryst.   s(14) = (     1          0          0      )
                  (     0          1          0      )
                  (     0          0         -1      )

 cart.    s(14) = (  1.0000000  0.0000000  0.0000000 )
                  (  0.0000000  1.0000000  0.0000000 )
                  (  0.0000000  0.0000000 -1.0000000 )


      isym = 15     inv. 180 deg rotation - cart. axis [0,1,0]   

 cryst.   s(15) = (     1          0          0      )    f =( -0.3333334 )
                  (    -1         -1          0      )       (  0.3333333 )
                  (     0          0          1      )       (  0.0000000 )

 cart.    s(15) = (  1.0000000  0.0000000  0.0000000 )    f =( -0.5000000 )
                  (  0.0000000 -1.0000000  0.0000000 )       (  0.2886751 )
                  (  0.0000000  0.0000000  1.0000000 )       (  0.0000000 )


      isym = 16     inv. 180 deg rotation - cart. axis [1,0,0]   

 cryst.   s(16) = (    -1          0          0      )
                  (     1          1          0      )
                  (     0          0          1      )

 cart.    s(16) = ( -1.0000000  0.0000000  0.0000000 )
                  (  0.0000000  1.0000000  0.0000000 )
                  (  0.0000000  0.0000000  1.0000000 )


      isym = 17     inv.  60 deg rotation - cryst. axis [0,0,1]  

 cryst.   s(17) = (    -1         -1          0      )
                  (     1          0          0      )
                  (     0          0         -1      )

 cart.    s(17) = ( -0.5000000  0.8660254  0.0000000 )
                  ( -0.8660254 -0.5000000  0.0000000 )
                  (  0.0000000  0.0000000 -1.0000000 )


      isym = 18     inv.  60 deg rotation - cryst. axis [0,0,-1] 

 cryst.   s(18) = (     0          1          0      )
                  (    -1         -1          0      )
                  (     0          0         -1      )

 cart.    s(18) = ( -0.5000000 -0.8660254  0.0000000 )
                  (  0.8660254 -0.5000000  0.0000000 )
                  (  0.0000000  0.0000000 -1.0000000 )


      isym = 19     inv. 120 deg rotation - cryst. axis [0,0,1]  

 cryst.   s(19) = (     0         -1          0      )    f =( -0.3333333 )
                  (     1          1          0      )       (  0.3333334 )
                  (     0          0         -1      )       (  0.0000000 )

 cart.    s(19) = (  0.5000000  0.8660254  0.0000000 )    f =( -0.5000000 )
                  ( -0.8660254  0.5000000  0.0000000 )       (  0.2886751 )
                  (  0.0000000  0.0000000 -1.0000000 )       (  0.0000000 )


      isym = 20     inv. 120 deg rotation - cryst. axis [0,0,-1] 

 cryst.   s(20) = (     1          1          0      )    f =( -0.3333334 )
                  (    -1          0          0      )       (  0.3333334 )
                  (     0          0         -1      )       (  0.0000000 )

 cart.    s(20) = (  0.5000000 -0.8660254  0.0000000 )    f =( -0.5000000 )
                  (  0.8660254  0.5000000  0.0000000 )       (  0.2886751 )
                  (  0.0000000  0.0000000 -1.0000000 )       (  0.0000000 )


      isym = 21     inv. 180 deg rotation - cryst. axis [1,-1,0] 

 cryst.   s(21) = (     0          1          0      )    f =( -0.3333333 )
                  (     1          0          0      )       (  0.3333334 )
                  (     0          0          1      )       (  0.0000000 )

 cart.    s(21) = ( -0.5000000  0.8660254  0.0000000 )    f =( -0.5000000 )
                  (  0.8660254  0.5000000  0.0000000 )       (  0.2886751 )
                  (  0.0000000  0.0000000  1.0000000 )       (  0.0000000 )


      isym = 22     inv. 180 deg rotation - cryst. axis [2,1,0]  

 cryst.   s(22) = (    -1         -1          0      )    f =( -0.3333334 )
                  (     0          1          0      )       (  0.3333334 )
                  (     0          0          1      )       (  0.0000000 )

 cart.    s(22) = ( -0.5000000 -0.8660254  0.0000000 )    f =( -0.5000000 )
                  ( -0.8660254  0.5000000  0.0000000 )       (  0.2886751 )
                  (  0.0000000  0.0000000  1.0000000 )       (  0.0000000 )


      isym = 23     inv. 180 deg rotation - cryst. axis [0,1,0]  

 cryst.   s(23) = (     1          1          0      )
                  (     0         -1          0      )
                  (     0          0          1      )

 cart.    s(23) = (  0.5000000  0.8660254  0.0000000 )
                  (  0.8660254 -0.5000000  0.0000000 )
                  (  0.0000000  0.0000000  1.0000000 )


      isym = 24     inv. 180 deg rotation - cryst. axis [1,1,0]  

 cryst.   s(24) = (     0         -1          0      )
                  (    -1          0          0      )
                  (     0          0          1      )

 cart.    s(24) = (  0.5000000 -0.8660254  0.0000000 )
                  ( -0.8660254 -0.5000000  0.0000000 )
                  (  0.0000000  0.0000000  1.0000000 )


     point group D_6h(6/mmm)
     there are 12 classes
     the character table:

       E     2C6   2C3   C2    3C2'  3C2'' i     2S3   2S6   s_h   3s_d  3s_v 
A_1g   1.00  1.00  1.00  1.00  1.00  1.00  1.00  1.00  1.00  1.00  1.00  1.00
A_2g   1.00  1.00  1.00  1.00 -1.00 -1.00  1.00  1.00  1.00  1.00 -1.00 -1.00
B_1g   1.00 -1.00  1.00 -1.00  1.00 -1.00  1.00 -1.00  1.00 -1.00  1.00 -1.00
B_2g   1.00 -1.00  1.00 -1.00 -1.00  1.00  1.00 -1.00  1.00 -1.00 -1.00  1.00
E_1g   2.00  1.00 -1.00 -2.00  0.00  0.00  2.00  1.00 -1.00 -2.00  0.00  0.00
E_2g   2.00 -1.00 -1.00  2.00  0.00  0.00  2.00 -1.00 -1.00  2.00  0.00  0.00
A_1u   1.00  1.00  1.00  1.00  1.00  1.00 -1.00 -1.00 -1.00 -1.00 -1.00 -1.00
A_2u   1.00  1.00  1.00  1.00 -1.00 -1.00 -1.00 -1.00 -1.00 -1.00  1.00  1.00
B_1u   1.00 -1.00  1.00 -1.00  1.00 -1.00 -1.00  1.00 -1.00  1.00 -1.00  1.00
B_2u   1.00 -1.00  1.00 -1.00 -1.00  1.00 -1.00  1.00 -1.00  1.00  1.00 -1.00
E_1u   2.00  1.00 -1.00 -2.00  0.00  0.00 -2.00 -1.00  1.00  2.00  0.00  0.00
E_2u   2.00 -1.00 -1.00  2.00  0.00  0.00 -2.00  1.00  1.00 -2.00  0.00  0.00

     the symmetry operations in each class and the name of the first element:

     E        1
          identity                                               
     2C6      5    6
           60 deg rotation - cryst. axis [0,0,1]                 
     2C3      7    8
          120 deg rotation - cryst. axis [0,0,1]                 
     C2       2
          180 deg rotation - cart. axis [0,0,1]                  
     3C2'     4   12   11
          180 deg rotation - cart. axis [1,0,0]                  
     3C2''    3    9   10
          180 deg rotation - cart. axis [0,1,0]                  
     i       13
          inversion                                              
     2S3     17   18
          inv.  60 deg rotation - cryst. axis [0,0,1]            
     2S6     19   20
          inv. 120 deg rotation - cryst. axis [0,0,1]            
     s_h     14
          inv. 180 deg rotation - cart. axis [0,0,1]             
     3s_d    16   24   23
          inv. 180 deg rotation - cart. axis [1,0,0]             
     3s_v    15   21   22
          inv. 180 deg rotation - cart. axis [0,1,0]             

   Cartesian axes

     site n.     atom                  positions (alat units)
         1           C   tau(   1) = (   0.0000000   0.0000000   0.0000000  )
         2           C   tau(   2) = (   0.0000000   0.5773503   0.0000000  )

   Crystallographic axes

     site n.     atom                  positions (cryst. coord.)
         1           C   tau(   1) = (  0.0000000  0.0000000  0.0000000  )
         2           C   tau(   2) = (  0.3333334  0.6666667  0.0000000  )

     number of k points=    27
                       cart. coord. in units 2pi/alat
        k(    1) = (   0.0000000   0.0000000   0.0000000), wk =   0.0088889
        k(    2) = (   0.0000000   0.0769800   0.0000000), wk =   0.0533333
        k(    3) = (   0.0000000   0.1539601   0.0000000), wk =   0.0533333
        k(    4) = (   0.0000000   0.2309401   0.0000000), wk =   0.0533333
        k(    5) = (   0.0000000   0.3079201   0.0000000), wk =   0.0533333
        k(    6) = (   0.0000000   0.3849002   0.0000000), wk =   0.0533333
        k(    7) = (   0.0000000   0.4618802   0.0000000), wk =   0.0533333
        k(    8) = (   0.0000000   0.5388603   0.0000000), wk =   0.0533333
        k(    9) = (   0.0666667   0.1154701   0.0000000), wk =   0.0533333
        k(   10) = (   0.0666667   0.1924501   0.0000000), wk =   0.1066667
        k(   11) = (   0.0666667   0.2694301   0.0000000), wk =   0.1066667
        k(   12) = (   0.0666667   0.3464102   0.0000000), wk =   0.1066667
        k(   13) = (   0.0666667   0.4233902   0.0000000), wk =   0.1066667
        k(   14) = (   0.0666667   0.5003702   0.0000000), wk =   0.1066667
        k(   15) = (   0.0666667   0.5773503   0.0000000), wk =   0.0533333
        k(   16) = (   0.1333333   0.2309401   0.0000000), wk =   0.0533333
        k(   17) = (   0.1333333   0.3079201   0.0000000), wk =   0.1066667
        k(   18) = (   0.1333333   0.3849002   0.0000000), wk =   0.1066667
        k(   19) = (   0.1333333   0.4618802   0.0000000), wk =   0.1066667
        k(   20) = (   0.1333333   0.5388603   0.0000000), wk =   0.1066667
        k(   21) = (   0.2000000   0.3464102   0.0000000), wk =   0.0533333
        k(   22) = (   0.2000000   0.4233902   0.0000000), wk =   0.1066667
        k(   23) = (   0.2000000   0.5003702   0.0000000), wk =   0.1066667
        k(   24) = (   0.2000000   0.5773503   0.0000000), wk =   0.0533333
        k(   25) = (   0.2666667   0.4618802   0.0000000), wk =   0.0533333
        k(   26) = (   0.2666667   0.5388603   0.0000000), wk =   0.1066667
        k(   27) = (   0.3333333   0.5773503   0.0000000), wk =   0.0177778

                       cryst. coord.
        k(    1) = (   0.0000000   0.0000000   0.0000000), wk =   0.0088889
        k(    2) = (   0.0000000   0.0666667   0.0000000), wk =   0.0533333
        k(    3) = (   0.0000000   0.1333333   0.0000000), wk =   0.0533333
        k(    4) = (   0.0000000   0.2000000   0.0000000), wk =   0.0533333
        k(    5) = (   0.0000000   0.2666667   0.0000000), wk =   0.0533333
        k(    6) = (   0.0000000   0.3333333   0.0000000), wk =   0.0533333
        k(    7) = (   0.0000000   0.4000000   0.0000000), wk =   0.0533333
        k(    8) = (   0.0000000   0.4666667   0.0000000), wk =   0.0533333
        k(    9) = (   0.0666667   0.0666667   0.0000000), wk =   0.0533333
        k(   10) = (   0.0666667   0.1333333   0.0000000), wk =   0.1066667
        k(   11) = (   0.0666667   0.2000000   0.0000000), wk =   0.1066667
        k(   12) = (   0.0666667   0.2666667   0.0000000), wk =   0.1066667
        k(   13) = (   0.0666667   0.3333333   0.0000000), wk =   0.1066667
        k(   14) = (   0.0666667   0.4000000   0.0000000), wk =   0.1066667
        k(   15) = (   0.0666667   0.4666667   0.0000000), wk =   0.0533333
        k(   16) = (   0.1333333   0.1333333   0.0000000), wk =   0.0533333
        k(   17) = (   0.1333333   0.2000000   0.0000000), wk =   0.1066667
        k(   18) = (   0.1333333   0.2666667   0.0000000), wk =   0.1066667
        k(   19) = (   0.1333333   0.3333333   0.0000000), wk =   0.1066667
        k(   20) = (   0.1333333   0.4000000   0.0000000), wk =   0.1066667
        k(   21) = (   0.2000000   0.2000000   0.0000000), wk =   0.0533333
        k(   22) = (   0.2000000   0.2666667   0.0000000), wk =   0.1066667
        k(   23) = (   0.2000000   0.3333333   0.0000000), wk =   0.1066667
        k(   24) = (   0.2000000   0.4000000   0.0000000), wk =   0.0533333
        k(   25) = (   0.2666667   0.2666667   0.0000000), wk =   0.0533333
        k(   26) = (   0.2666667   0.3333333   0.0000000), wk =   0.1066667
        k(   27) = (   0.3333333   0.3333333   0.0000000), wk =   0.0177778

     Dense  grid:    37579 G-vectors     FFT dimensions: (  36,  36,  96)

     Smooth grid:     9597 G-vectors     FFT dimensions: (  24,  24,  60)

     Dynamical RAM for                 wfc:       0.07 MB

     Dynamical RAM for     wfc (w. buffer):       2.03 MB

     Dynamical RAM for           str. fact:       0.57 MB

     Dynamical RAM for           local pot:       0.00 MB

     Dynamical RAM for          nlocal pot:       0.29 MB

     Dynamical RAM for                qrad:       0.46 MB

     Dynamical RAM for          rho,v,vnew:       4.57 MB

     Dynamical RAM for               rhoin:       1.52 MB

     Dynamical RAM for            rho*nmix:       9.17 MB

     Dynamical RAM for           G-vectors:       2.22 MB

     Dynamical RAM for          h,s,v(r/c):       0.00 MB

     Dynamical RAM for          <psi|beta>:       0.00 MB

     Dynamical RAM for                 psi:       0.15 MB

     Dynamical RAM for                hpsi:       0.15 MB

     Dynamical RAM for                spsi:       0.15 MB

     Dynamical RAM for      wfcinit/wfcrot:       0.29 MB

     Dynamical RAM for           addusdens:      25.80 MB

     Estimated static dynamical RAM per process >      17.56 MB

     Estimated max dynamical RAM per process >      52.54 MB

     Check: negative core charge=   -0.000002

     Initial potential from superposition of free atoms

     starting charge       7.9999, renormalised to       8.0000
     Starting wfcs are    8 randomized atomic wfcs

     total cpu time spent up to now is        0.7 secs

     Self-consistent Calculation

     iteration #  1     ecut=    40.00 Ry     beta= 0.70
     Davidson diagonalization with overlap

---- Real-time Memory Report at c_bands before calling an iterative solver
            73 MiB given to the printing process from OS
             0 MiB allocation reported by mallinfo(arena+hblkhd)
          1005 MiB available memory on the node where the printing process lives
------------------
     ethr =  1.00E-02,  avg # of iterations =  3.2

     total cpu time spent up to now is        1.2 secs

     total energy              =     -23.90448373 Ry
     estimated scf accuracy    <       0.10553080 Ry

     iteration #  2     ecut=    40.00 Ry     beta= 0.70
     Davidson diagonalization with overlap

---- Real-time Memory Report at c_bands before calling an iterative solver
            85 MiB given to the printing process from OS
             0 MiB allocation reported by mallinfo(arena+hblkhd)
           981 MiB available memory on the node where the printing process lives
------------------
     ethr =  1.32E-03,  avg # of iterations =  2.1

     negative rho (up, down):  3.465E-06 0.000E+00

     total cpu time spent up to now is        1.6 secs

     total energy              =     -23.91623166 Ry
     estimated scf accuracy    <       0.00987813 Ry

     iteration #  3     ecut=    40.00 Ry     beta= 0.70
     Davidson diagonalization with overlap

---- Real-time Memory Report at c_bands before calling an iterative solver
            86 MiB given to the printing process from OS
             0 MiB allocation reported by mallinfo(arena+hblkhd)
           981 MiB available memory on the node where the printing process lives
------------------
     ethr =  1.23E-04,  avg # of iterations =  4.6

     negative rho (up, down):  5.026E-08 0.000E+00

     total cpu time spent up to now is        2.3 secs

     total energy              =     -23.92176797 Ry
     estimated scf accuracy    <       0.00260162 Ry

     iteration #  4     ecut=    40.00 Ry     beta= 0.70
     Davidson diagonalization with overlap

---- Real-time Memory Report at c_bands before calling an iterative solver
            86 MiB given to the printing process from OS
             0 MiB allocation reported by mallinfo(arena+hblkhd)
           995 MiB available memory on the node where the printing process lives
------------------
     ethr =  3.25E-05,  avg # of iterations =  2.4

     negative rho (up, down):  1.140E-06 0.000E+00

     total cpu time spent up to now is        2.7 secs

     total energy              =     -23.92211063 Ry
     estimated scf accuracy    <       0.00022734 Ry

     iteration #  5     ecut=    40.00 Ry     beta= 0.70
     Davidson diagonalization with overlap

---- Real-time Memory Report at c_bands before calling an iterative solver
            87 MiB given to the printing process from OS
             0 MiB allocation reported by mallinfo(arena+hblkhd)
           994 MiB available memory on the node where the printing process lives
------------------
     ethr =  2.84E-06,  avg # of iterations =  6.3

     negative rho (up, down):  1.159E-06 0.000E+00

     total cpu time spent up to now is        3.6 secs

     total energy              =     -23.92231641 Ry
     estimated scf accuracy    <       0.00044001 Ry

     iteration #  6     ecut=    40.00 Ry     beta= 0.70
     Davidson diagonalization with overlap

---- Real-time Memory Report at c_bands before calling an iterative solver
            87 MiB given to the printing process from OS
             0 MiB allocation reported by mallinfo(arena+hblkhd)
           997 MiB available memory on the node where the printing process lives
------------------
     ethr =  2.84E-06,  avg # of iterations =  3.4

     negative rho (up, down):  1.191E-06 0.000E+00

     total cpu time spent up to now is        4.5 secs

     total energy              =     -23.92234810 Ry
     estimated scf accuracy    <       0.00002160 Ry

     iteration #  7     ecut=    40.00 Ry     beta= 0.70
     Davidson diagonalization with overlap

---- Real-time Memory Report at c_bands before calling an iterative solver
            87 MiB given to the printing process from OS
             0 MiB allocation reported by mallinfo(arena+hblkhd)
           986 MiB available memory on the node where the printing process lives
------------------
     ethr =  2.70E-07,  avg # of iterations =  5.9

     negative rho (up, down):  1.183E-06 0.000E+00

     total cpu time spent up to now is        5.5 secs

     total energy              =     -23.92238378 Ry
     estimated scf accuracy    <       0.00002878 Ry

     iteration #  8     ecut=    40.00 Ry     beta= 0.70
     Davidson diagonalization with overlap

---- Real-time Memory Report at c_bands before calling an iterative solver
            87 MiB given to the printing process from OS
             0 MiB allocation reported by mallinfo(arena+hblkhd)
           969 MiB available memory on the node where the printing process lives
------------------
     ethr =  2.70E-07,  avg # of iterations =  1.0

     negative rho (up, down):  1.263E-06 0.000E+00

     total cpu time spent up to now is        5.8 secs

     total energy              =     -23.92240007 Ry
     estimated scf accuracy    <       0.00002319 Ry

     iteration #  9     ecut=    40.00 Ry     beta= 0.70
     Davidson diagonalization with overlap

---- Real-time Memory Report at c_bands before calling an iterative solver
            88 MiB given to the printing process from OS
             0 MiB allocation reported by mallinfo(arena+hblkhd)
           990 MiB available memory on the node where the printing process lives
------------------
     ethr =  2.70E-07,  avg # of iterations =  1.7

     negative rho (up, down):  1.152E-06 0.000E+00

     total cpu time spent up to now is        6.2 secs

     total energy              =     -23.92237068 Ry
     estimated scf accuracy    <       0.00005412 Ry

     iteration # 10     ecut=    40.00 Ry     beta= 0.70
     Davidson diagonalization with overlap

---- Real-time Memory Report at c_bands before calling an iterative solver
            88 MiB given to the printing process from OS
             0 MiB allocation reported by mallinfo(arena+hblkhd)
          1005 MiB available memory on the node where the printing process lives
------------------
     ethr =  2.70E-07,  avg # of iterations =  3.0

     negative rho (up, down):  1.129E-06 0.000E+00

     total cpu time spent up to now is        6.8 secs

     total energy              =     -23.92237157 Ry
     estimated scf accuracy    <       0.00000600 Ry

     iteration # 11     ecut=    40.00 Ry     beta= 0.70
     Davidson diagonalization with overlap

---- Real-time Memory Report at c_bands before calling an iterative solver
            88 MiB given to the printing process from OS
             0 MiB allocation reported by mallinfo(arena+hblkhd)
          1014 MiB available memory on the node where the printing process lives
------------------
     ethr =  7.50E-08,  avg # of iterations =  5.8

     negative rho (up, down):  1.136E-06 0.000E+00

     total cpu time spent up to now is        7.7 secs

     total energy              =     -23.92237970 Ry
     estimated scf accuracy    <       0.00001911 Ry

     iteration # 12     ecut=    40.00 Ry     beta= 0.70
     Davidson diagonalization with overlap

---- Real-time Memory Report at c_bands before calling an iterative solver
            88 MiB given to the printing process from OS
             0 MiB allocation reported by mallinfo(arena+hblkhd)
          1014 MiB available memory on the node where the printing process lives
------------------
     ethr =  7.50E-08,  avg # of iterations =  1.0

     negative rho (up, down):  1.147E-06 0.000E+00

     total cpu time spent up to now is        8.1 secs

     total energy              =     -23.92238122 Ry
     estimated scf accuracy    <       0.00001282 Ry

     iteration # 13     ecut=    40.00 Ry     beta= 0.70
     Davidson diagonalization with overlap

---- Real-time Memory Report at c_bands before calling an iterative solver
            88 MiB given to the printing process from OS
             0 MiB allocation reported by mallinfo(arena+hblkhd)
          1021 MiB available memory on the node where the printing process lives
------------------
     ethr =  7.50E-08,  avg # of iterations =  1.0

     negative rho (up, down):  1.139E-06 0.000E+00

     total cpu time spent up to now is        8.5 secs

     total energy              =     -23.92237844 Ry
     estimated scf accuracy    <       0.00001491 Ry

     iteration # 14     ecut=    40.00 Ry     beta= 0.70
     Davidson diagonalization with overlap

---- Real-time Memory Report at c_bands before calling an iterative solver
            88 MiB given to the printing process from OS
             0 MiB allocation reported by mallinfo(arena+hblkhd)
          1016 MiB available memory on the node where the printing process lives
------------------
     ethr =  7.50E-08,  avg # of iterations =  1.0

     negative rho (up, down):  1.133E-06 0.000E+00

     total cpu time spent up to now is        8.8 secs

     total energy              =     -23.92237863 Ry
     estimated scf accuracy    <       0.00001010 Ry

     iteration # 15     ecut=    40.00 Ry     beta= 0.70
     Davidson diagonalization with overlap

---- Real-time Memory Report at c_bands before calling an iterative solver
            88 MiB given to the printing process from OS
             0 MiB allocation reported by mallinfo(arena+hblkhd)
          1016 MiB available memory on the node where the printing process lives
------------------
     ethr =  7.50E-08,  avg # of iterations =  1.0

     negative rho (up, down):  1.133E-06 0.000E+00

     total cpu time spent up to now is        9.2 secs

     total energy              =     -23.92237965 Ry
     estimated scf accuracy    <       0.00001015 Ry

     iteration # 16     ecut=    40.00 Ry     beta= 0.70
     Davidson diagonalization with overlap

---- Real-time Memory Report at c_bands before calling an iterative solver
            88 MiB given to the printing process from OS
             0 MiB allocation reported by mallinfo(arena+hblkhd)
          1016 MiB available memory on the node where the printing process lives
------------------
     ethr =  7.50E-08,  avg # of iterations =  1.0

     negative rho (up, down):  1.135E-06 0.000E+00

     total cpu time spent up to now is        9.6 secs

     total energy              =     -23.92238683 Ry
     estimated scf accuracy    <       0.00001128 Ry

     iteration # 17     ecut=    40.00 Ry     beta= 0.70
     Davidson diagonalization with overlap

---- Real-time Memory Report at c_bands before calling an iterative solver
            88 MiB given to the printing process from OS
             0 MiB allocation reported by mallinfo(arena+hblkhd)
          1016 MiB available memory on the node where the printing process lives
------------------
     ethr =  7.50E-08,  avg # of iterations =  1.0

     negative rho (up, down):  1.127E-06 0.000E+00

     total cpu time spent up to now is       10.1 secs

     total energy              =     -23.92240501 Ry
     estimated scf accuracy    <       0.00002432 Ry

     iteration # 18     ecut=    40.00 Ry     beta= 0.70
     Davidson diagonalization with overlap

---- Real-time Memory Report at c_bands before calling an iterative solver
            88 MiB given to the printing process from OS
             0 MiB allocation reported by mallinfo(arena+hblkhd)
          1016 MiB available memory on the node where the printing process lives
------------------
     ethr =  7.50E-08,  avg # of iterations =  2.0

     negative rho (up, down):  1.159E-06 0.000E+00

     total cpu time spent up to now is       10.7 secs

     total energy              =     -23.92235565 Ry
     estimated scf accuracy    <       0.00006826 Ry

     iteration # 19     ecut=    40.00 Ry     beta= 0.70
     Davidson diagonalization with overlap

---- Real-time Memory Report at c_bands before calling an iterative solver
            88 MiB given to the printing process from OS
             0 MiB allocation reported by mallinfo(arena+hblkhd)
          1017 MiB available memory on the node where the printing process lives
------------------
     ethr =  7.50E-08,  avg # of iterations =  7.2

     negative rho (up, down):  1.147E-06 0.000E+00

     total cpu time spent up to now is       11.6 secs

     total energy              =     -23.92237076 Ry
     estimated scf accuracy    <       0.00001674 Ry

     iteration # 20     ecut=    40.00 Ry     beta= 0.70
     Davidson diagonalization with overlap

---- Real-time Memory Report at c_bands before calling an iterative solver
            88 MiB given to the printing process from OS
             0 MiB allocation reported by mallinfo(arena+hblkhd)
          1017 MiB available memory on the node where the printing process lives
------------------
     ethr =  7.50E-08,  avg # of iterations =  4.9

     negative rho (up, down):  1.147E-06 0.000E+00

     total cpu time spent up to now is       12.1 secs

     total energy              =     -23.92237433 Ry
     estimated scf accuracy    <       0.00000039 Ry

     iteration # 21     ecut=    40.00 Ry     beta= 0.70
     Davidson diagonalization with overlap

---- Real-time Memory Report at c_bands before calling an iterative solver
            88 MiB given to the printing process from OS
             0 MiB allocation reported by mallinfo(arena+hblkhd)
          1017 MiB available memory on the node where the printing process lives
------------------
     ethr =  4.88E-09,  avg # of iterations =  4.4

     negative rho (up, down):  1.147E-06 0.000E+00

     total cpu time spent up to now is       12.7 secs

     total energy              =     -23.92237422 Ry
     estimated scf accuracy    <       0.00000040 Ry

     iteration # 22     ecut=    40.00 Ry     beta= 0.70
     Davidson diagonalization with overlap

---- Real-time Memory Report at c_bands before calling an iterative solver
            88 MiB given to the printing process from OS
             0 MiB allocation reported by mallinfo(arena+hblkhd)
          1016 MiB available memory on the node where the printing process lives
------------------
     ethr =  4.88E-09,  avg # of iterations =  3.0

     negative rho (up, down):  1.146E-06 0.000E+00

     total cpu time spent up to now is       13.2 secs

     total energy              =     -23.92237433 Ry
     estimated scf accuracy    <       0.00000001 Ry

     iteration # 23     ecut=    40.00 Ry     beta= 0.70
     Davidson diagonalization with overlap

---- Real-time Memory Report at c_bands before calling an iterative solver
            88 MiB given to the printing process from OS
             0 MiB allocation reported by mallinfo(arena+hblkhd)
          1016 MiB available memory on the node where the printing process lives
------------------
     ethr =  1.68E-10,  avg # of iterations =  4.7

     negative rho (up, down):  1.149E-06 0.000E+00

     total cpu time spent up to now is       13.7 secs

     total energy              =     -23.92237359 Ry
     estimated scf accuracy    <       0.00000002 Ry

     iteration # 24     ecut=    40.00 Ry     beta= 0.70
     Davidson diagonalization with overlap

---- Real-time Memory Report at c_bands before calling an iterative solver
            88 MiB given to the printing process from OS
             0 MiB allocation reported by mallinfo(arena+hblkhd)
          1016 MiB available memory on the node where the printing process lives
------------------
     ethr =  1.68E-10,  avg # of iterations =  5.8

     negative rho (up, down):  1.145E-06 0.000E+00

     total cpu time spent up to now is       14.4 secs

     total energy              =     -23.92237440 Ry
     estimated scf accuracy    <       0.00000023 Ry

     iteration # 25     ecut=    40.00 Ry     beta= 0.70
     Davidson diagonalization with overlap

---- Real-time Memory Report at c_bands before calling an iterative solver
            88 MiB given to the printing process from OS
             0 MiB allocation reported by mallinfo(arena+hblkhd)
          1027 MiB available memory on the node where the printing process lives
------------------
     ethr =  1.68E-10,  avg # of iterations =  9.5

     negative rho (up, down):  1.145E-06 0.000E+00

     total cpu time spent up to now is       15.9 secs

     total energy              =     -23.92237439 Ry
     estimated scf accuracy    <       0.00000078 Ry

     iteration # 26     ecut=    40.00 Ry     beta= 0.70
     Davidson diagonalization with overlap

---- Real-time Memory Report at c_bands before calling an iterative solver
            88 MiB given to the printing process from OS
             0 MiB allocation reported by mallinfo(arena+hblkhd)
           989 MiB available memory on the node where the printing process lives
------------------
     ethr =  1.68E-10,  avg # of iterations =  6.5

     negative rho (up, down):  1.146E-06 0.000E+00

     total cpu time spent up to now is       16.7 secs

     total energy              =     -23.92237440 Ry
     estimated scf accuracy    <       0.00000022 Ry

     iteration # 27     ecut=    40.00 Ry     beta= 0.70
     Davidson diagonalization with overlap

---- Real-time Memory Report at c_bands before calling an iterative solver
            88 MiB given to the printing process from OS
             0 MiB allocation reported by mallinfo(arena+hblkhd)
           988 MiB available memory on the node where the printing process lives
------------------
     ethr =  1.68E-10,  avg # of iterations =  1.6

     negative rho (up, down):  1.144E-06 0.000E+00

     total cpu time spent up to now is       17.2 secs

     total energy              =     -23.92237434 Ry
     estimated scf accuracy    <       0.00000018 Ry

     iteration # 28     ecut=    40.00 Ry     beta= 0.70
     Davidson diagonalization with overlap

---- Real-time Memory Report at c_bands before calling an iterative solver
            88 MiB given to the printing process from OS
             0 MiB allocation reported by mallinfo(arena+hblkhd)
           974 MiB available memory on the node where the printing process lives
------------------
     ethr =  1.68E-10,  avg # of iterations =  3.1

     negative rho (up, down):  1.147E-06 0.000E+00

     total cpu time spent up to now is       18.0 secs

     total energy              =     -23.92237432 Ry
     estimated scf accuracy    <       0.00000005 Ry

     iteration # 29     ecut=    40.00 Ry     beta= 0.70
     Davidson diagonalization with overlap

---- Real-time Memory Report at c_bands before calling an iterative solver
            88 MiB given to the printing process from OS
             0 MiB allocation reported by mallinfo(arena+hblkhd)
           971 MiB available memory on the node where the printing process lives
------------------
     ethr =  1.68E-10,  avg # of iterations =  2.9

     negative rho (up, down):  1.146E-06 0.000E+00

     total cpu time spent up to now is       18.7 secs

     End of self-consistent calculation

          k = 0.0000 0.0000 0.0000 (  1205 PWs)   bands (ev):

   -18.6314  -7.0437  -2.8354  -2.8354

     occupation numbers 
     1.0000   1.0000   1.0000   1.0000

          k = 0.0000 0.0770 0.0000 (  1191 PWs)   bands (ev):

   -18.5305  -6.9237  -3.2405  -3.0441

     occupation numbers 
     1.0000   1.0000   1.0000   1.0000

          k = 0.0000 0.1540 0.0000 (  1187 PWs)   bands (ev):

   -18.2288  -6.5657  -4.3174  -3.5743

     occupation numbers 
     1.0000   1.0000   1.0000   1.0000

          k = 0.0000 0.2309 0.0000 (  1178 PWs)   bands (ev):

   -17.7283  -5.9767  -5.7956  -4.2393

     occupation numbers 
     1.0000   1.0000   1.0000   1.0000

          k = 0.0000 0.3079 0.0000 (  1186 PWs)   bands (ev):

   -17.0333  -7.4512  -5.1714  -4.8882

     occupation numbers 
     1.0000   1.0000   1.0000   1.0000

          k = 0.0000 0.3849 0.0000 (  1196 PWs)   bands (ev):

   -16.1515  -9.1391  -5.4290  -4.1822

     occupation numbers 
     1.0000   1.0000   1.0000   1.0000

          k = 0.0000 0.4619 0.0000 (  1196 PWs)   bands (ev):

   -15.0994 -10.7633  -5.8108  -3.0924

     occupation numbers 
     1.0000   1.0000   1.0000   1.0000

          k = 0.0000 0.5389 0.0000 (  1188 PWs)   bands (ev):

   -13.9573 -12.2009  -6.0074  -2.1831

     occupation numbers 
     1.0000   1.0000   1.0000   1.0000

          k = 0.0667 0.1155 0.0000 (  1181 PWs)   bands (ev):

   -18.3292  -6.6846  -3.9331  -3.4625

     occupation numbers 
     1.0000   1.0000   1.0000   1.0000

          k = 0.0667 0.1925 0.0000 (  1182 PWs)   bands (ev):

   -17.9281  -6.2109  -5.1263  -4.1469

     occupation numbers 
     1.0000   1.0000   1.0000   1.0000

          k = 0.0667 0.2694 0.0000 (  1183 PWs)   bands (ev):

   -17.3304  -6.6369  -5.5126  -4.8625

     occupation numbers 
     1.0000   1.0000   1.0000   1.0000

          k = 0.0667 0.3464 0.0000 (  1186 PWs)   bands (ev):

   -16.5418  -8.2789  -5.4885  -4.6113

     occupation numbers 
     1.0000   1.0000   1.0000   1.0000

          k = 0.0667 0.4234 0.0000 (  1186 PWs)   bands (ev):

   -15.5734  -9.9214  -5.9652  -3.5561

     occupation numbers 
     1.0000   1.0000   1.0000   1.0000

          k = 0.0667 0.5004 0.0000 (  1198 PWs)   bands (ev):

   -14.4562 -11.4655  -6.2613  -2.4935

     occupation numbers 
     1.0000   1.0000   1.0000   1.0000

          k = 0.0667 0.5774 0.0000 (  1198 PWs)   bands (ev):

   -13.5565 -12.5109  -6.3616  -1.9347

     occupation numbers 
     1.0000   1.0000   1.0000   1.0000

          k = 0.1333 0.2309 0.0000 (  1183 PWs)   bands (ev):

   -17.4298  -6.1814  -5.6272  -5.0551

     occupation numbers 
     1.0000   1.0000   1.0000   1.0000

          k = 0.1333 0.3079 0.0000 (  1187 PWs)   bands (ev):

   -16.7383  -7.5142  -5.9151  -4.8290

     occupation numbers 
     1.0000   1.0000   1.0000   1.0000

          k = 0.1333 0.3849 0.0000 (  1186 PWs)   bands (ev):

   -15.8622  -9.0325  -6.5581  -3.8468

     occupation numbers 
     1.0000   1.0000   1.0000   1.0000

          k = 0.1333 0.4619 0.0000 (  1199 PWs)   bands (ev):

   -14.8192 -10.5712  -6.9827  -2.7574

     occupation numbers 
     1.0000   1.0000   1.0000   1.0000

          k = 0.1333 0.5389 0.0000 (  1197 PWs)   bands (ev):

   -13.6915 -11.9638  -7.1948  -1.8274

     occupation numbers 
     1.0000   1.0000   1.0000   1.0000

          k = 0.2000 0.3464 0.0000 (  1183 PWs)   bands (ev):

   -15.9591  -8.4905  -7.0261  -3.9457

     occupation numbers 
     1.0000   1.0000   1.0000   1.0000

          k = 0.2000 0.4234 0.0000 (  1188 PWs)   bands (ev):

   -15.0057  -9.7160  -7.8098  -2.9046

     occupation numbers 
     1.0000   1.0000   1.0000   1.0000

          k = 0.2000 0.5004 0.0000 (  1192 PWs)   bands (ev):

   -13.9126 -11.0727  -8.2213  -1.8244

     occupation numbers 
     1.0000   1.0000   1.0000   1.0000

          k = 0.2000 0.5774 0.0000 (  1198 PWs)   bands (ev):

   -13.0373 -12.0511  -8.3496  -1.2090

     occupation numbers 
     1.0000   1.0000   1.0000   1.0000

          k = 0.2667 0.4619 0.0000 (  1191 PWs)   bands (ev):

   -13.9955 -10.4737  -8.8734  -1.8362

     occupation numbers 
     1.0000   1.0000   1.0000   1.0000

          k = 0.2667 0.5389 0.0000 (  1197 PWs)   bands (ev):

   -12.9129 -11.4683  -9.3913  -0.8113

     occupation numbers 
     1.0000   1.0000   1.0000   1.0000

          k = 0.3333 0.5774 0.0000 (  1197 PWs)   bands (ev):

   -12.0043 -12.0043  -9.9624   0.2170

     occupation numbers 
     1.0000   1.0000   1.0000   1.0000

     highest occupied level (ev):     0.2170

!    total energy              =     -23.92237433 Ry
     estimated scf accuracy    <          1.7E-09 Ry

     The total energy is the sum of the following terms:
     one-electron contribution =     -55.84360388 Ry
     hartree contribution      =      29.98472919 Ry
     xc contribution           =      -8.16576557 Ry
     ewald contribution        =      10.10226594 Ry

     convergence has been achieved in  29 iterations

     Writing all to output data dir ./tmp/graphene/graphene.save/

     init_run     :      0.56s CPU      0.63s WALL (       1 calls)
     electrons    :     17.58s CPU     18.00s WALL (       1 calls)

     Called by init_run:
     wfcinit      :      0.21s CPU      0.22s WALL (       1 calls)
     wfcinit:atom :      0.01s CPU      0.01s WALL (      27 calls)
     wfcinit:wfcr :      0.19s CPU      0.19s WALL (      27 calls)
     potinit      :      0.02s CPU      0.03s WALL (       1 calls)
     hinit0       :      0.30s CPU      0.34s WALL (       1 calls)

     Called by electrons:
     c_bands      :     13.46s CPU     13.79s WALL (      29 calls)
     sum_band     :      2.93s CPU      3.00s WALL (      29 calls)
     v_of_rho     :      0.35s CPU      0.35s WALL (      30 calls)
     v_h          :      0.07s CPU      0.08s WALL (      30 calls)
     v_xc         :      0.27s CPU      0.27s WALL (      30 calls)
     newd         :      0.56s CPU      0.58s WALL (      30 calls)
     mix_rho      :      0.19s CPU      0.19s WALL (      29 calls)

     Called by c_bands:
     init_us_2    :      0.50s CPU      0.52s WALL (    1593 calls)
     init_us_2:cp :      0.50s CPU      0.51s WALL (    1593 calls)
     cegterg      :     12.85s CPU     13.17s WALL (     783 calls)

     Called by sum_band:
     sum_band:wei :      0.00s CPU      0.00s WALL (      29 calls)
     sum_band:loo :      2.06s CPU      2.11s WALL (      29 calls)
     sum_band:buf :      0.01s CPU      0.01s WALL (     783 calls)
     sum_band:ini :      0.25s CPU      0.25s WALL (     783 calls)
     sum_band:cal :      0.05s CPU      0.06s WALL (     783 calls)
     sum_band:bec :      0.01s CPU      0.01s WALL (     783 calls)
     addusdens    :      0.65s CPU      0.67s WALL (      29 calls)
                                        0.00s GPU  (      29 calls)
     addusd:skk   :      0.01s CPU      0.01s WALL (      29 calls)
                                        0.00s GPU  (      29 calls)

     Called by *egterg:
     cdiaghg      :      0.23s CPU      0.24s WALL (    3513 calls)
     cegterg:over :      0.19s CPU      0.19s WALL (    2730 calls)
     cegterg:upda :      0.14s CPU      0.15s WALL (    2730 calls)
     cegterg:last :      0.21s CPU      0.22s WALL (    2229 calls)
     h_psi        :     11.80s CPU     12.09s WALL (    3540 calls)
     s_psi        :      0.17s CPU      0.17s WALL (    3540 calls)
     g_psi        :      0.10s CPU      0.10s WALL (    2730 calls)

     Called by h_psi:
     h_psi:calbec :      0.24s CPU      0.24s WALL (    3540 calls)
     vloc_psi     :     11.32s CPU     11.60s WALL (    3540 calls)
     add_vuspsi   :      0.18s CPU      0.19s WALL (    3540 calls)

     General routines
     calbec       :      0.28s CPU      0.28s WALL (    4323 calls)
     fft          :      0.28s CPU      0.32s WALL (     178 calls)
     ffts         :      0.02s CPU      0.02s WALL (      59 calls)
     fftw         :     10.39s CPU     10.63s WALL (   25572 calls)
     interpolate  :      0.07s CPU      0.07s WALL (      30 calls)

     Parallel routines

     PWSCF        :     18.20s CPU     18.69s WALL


   This run was terminated on:  12:18:22   4Jul2023            

=------------------------------------------------------------------------------=
   JOB DONE.
=------------------------------------------------------------------------------=
